 120 120   0   0
  0.7160537E+01  0.1014912E-08  0.1106234E-08  0.1042140E-08  0.5000000E-15
   1.0000000000000000E-004
  CAR 
 unknown system                          
     14.16970199    -12.17544517  301      8.12212510      1.00000000
    -12.175  0.0000E+00  0.0000E+00
    -12.088  0.0000E+00  0.0000E+00
    -12.000  0.0000E+00  0.0000E+00
    -11.912  0.0000E+00  0.0000E+00
    -11.824  0.0000E+00  0.0000E+00
    -11.736  0.0000E+00  0.0000E+00
    -11.649  0.0000E+00  0.0000E+00
    -11.561  0.0000E+00  0.0000E+00
    -11.473  0.0000E+00  0.0000E+00
    -11.385  0.0000E+00  0.0000E+00
    -11.297  0.0000E+00  0.0000E+00
    -11.209  0.0000E+00  0.0000E+00
    -11.122  0.0000E+00  0.0000E+00
    -11.034  0.0000E+00  0.0000E+00
    -10.946  0.5289E-03  0.5630E-05
    -10.858  0.7437E-02  0.2969E-03
    -10.770  0.2235E-01  0.1546E-02
    -10.683  0.1213E+00  0.8604E-02
    -10.595  0.1375E-01  0.1247E-01
    -10.507  0.3880E-02  0.1320E-01
    -10.419  0.8227E-01  0.1415E-01
    -10.331  0.1753E+00  0.3114E-01
    -10.243  0.1088E+00  0.4241E-01
    -10.156  0.2499E-01  0.5305E-01
    -10.068  0.0000E+00  0.5333E-01
     -9.980  0.0000E+00  0.5333E-01
     -9.892  0.0000E+00  0.5333E-01
     -9.804  0.0000E+00  0.5333E-01
     -9.717  0.0000E+00  0.5333E-01
     -9.629  0.0000E+00  0.5333E-01
     -9.541  0.0000E+00  0.5333E-01
     -9.453  0.0000E+00  0.5333E-01
     -9.365  0.0000E+00  0.5333E-01
     -9.277  0.0000E+00  0.5333E-01
     -9.190  0.0000E+00  0.5333E-01
     -9.102  0.0000E+00  0.5333E-01
     -9.014  0.0000E+00  0.5333E-01
     -8.926  0.1417E-02  0.5337E-01
     -8.838  0.1354E-01  0.5391E-01
     -8.751  0.4149E-01  0.5621E-01
     -8.663  0.1382E+00  0.6314E-01
     -8.575  0.1038E+00  0.7337E-01
     -8.487  0.5374E-01  0.8029E-01
     -8.399  0.5056E-01  0.8400E-01
     -8.311  0.7870E-01  0.9237E-01
     -8.224  0.9283E-01  0.9949E-01
     -8.136  0.3876E-01  0.1052E+00
     -8.048  0.2347E-03  0.1067E+00
     -7.960  0.2586E-01  0.1074E+00
     -7.872  0.6476E-01  0.1118E+00
     -7.785  0.4784E-01  0.1171E+00
     -7.697  0.2687E-01  0.1199E+00
     -7.609  0.9473E-01  0.1239E+00
     -7.521  0.1267E+00  0.1369E+00
     -7.433  0.4375E-01  0.1435E+00
     -7.346  0.1423E-01  0.1458E+00
     -7.258  0.1207E-01  0.1467E+00
     -7.170  0.8332E-01  0.1504E+00
     -7.082  0.7033E-01  0.1595E+00
     -6.994  0.2191E-01  0.1620E+00
     -6.906  0.3772E-01  0.1645E+00
     -6.819  0.5225E-01  0.1686E+00
     -6.731  0.8689E-01  0.1751E+00
     -6.643  0.7817E-01  0.1822E+00
     -6.555  0.1419E-01  0.1862E+00
     -6.467  0.3584E-01  0.1888E+00
     -6.380  0.4376E-01  0.1922E+00
     -6.292  0.5518E-01  0.1965E+00
     -6.204  0.6625E-01  0.2019E+00
     -6.116  0.5220E-01  0.2074E+00
     -6.028  0.3517E-01  0.2110E+00
     -5.940  0.8352E-02  0.2132E+00
     -5.853  0.0000E+00  0.2133E+00
     -5.765  0.2316E-01  0.2140E+00
     -5.677  0.9140E-01  0.2188E+00
     -5.589  0.5067E-01  0.2252E+00
     -5.501  0.3883E-01  0.2288E+00
     -5.414  0.8860E-01  0.2338E+00
     -5.326  0.1753E+00  0.2467E+00
     -5.238  0.1402E-01  0.2534E+00
     -5.150  0.6853E-01  0.2580E+00
     -5.062  0.1078E+00  0.2657E+00
     -4.974  0.1057E+00  0.2756E+00
     -4.887  0.3497E-01  0.2808E+00
     -4.799  0.1251E+00  0.2886E+00
     -4.711  0.3322E-01  0.2932E+00
     -4.623  0.4921E-01  0.2969E+00
     -4.535  0.4754E-01  0.3011E+00
     -4.448  0.6846E-01  0.3060E+00
     -4.360  0.6399E-01  0.3131E+00
     -4.272  0.2771E-01  0.3165E+00
     -4.184  0.1541E-01  0.3183E+00
     -4.096  0.8168E-02  0.3194E+00
     -4.008  0.3206E-02  0.3198E+00
     -3.921  0.5232E-03  0.3200E+00
     -3.833  0.0000E+00  0.3200E+00
     -3.745  0.7172E-03  0.3200E+00
     -3.657  0.1982E-01  0.3209E+00
     -3.569  0.2930E-01  0.3230E+00
     -3.482  0.4109E-01  0.3261E+00
     -3.394  0.4304E-01  0.3298E+00
     -3.306  0.4615E-01  0.3337E+00
     -3.218  0.5298E-01  0.3380E+00
     -3.130  0.6353E-01  0.3431E+00
     -3.042  0.8658E-01  0.3495E+00
     -2.955  0.6140E-01  0.3565E+00
     -2.867  0.5918E-01  0.3625E+00
     -2.779  0.5076E-01  0.3665E+00
     -2.691  0.8979E-01  0.3744E+00
     -2.603  0.1121E+00  0.3828E+00
     -2.516  0.5431E-01  0.3880E+00
     -2.428  0.8936E-01  0.3939E+00
     -2.340  0.3195E-01  0.4013E+00
     -2.252  0.1716E+00  0.4056E+00
     -2.164  0.7964E-01  0.4133E+00
     -2.076  0.1112E+00  0.4206E+00
     -1.989  0.1098E+00  0.4309E+00
     -1.901  0.8381E-01  0.4395E+00
     -1.813  0.1082E+00  0.4473E+00
     -1.725  0.1551E+00  0.4593E+00
     -1.637  0.1455E+00  0.4734E+00
     -1.550  0.8990E-01  0.4839E+00
     -1.462  0.8388E-01  0.4916E+00
     -1.374  0.7551E-01  0.4986E+00
     -1.286  0.4072E-01  0.5037E+00
     -1.198  0.7190E-01  0.5065E+00
     -1.110  0.1144E+00  0.5174E+00
     -1.023  0.1688E+00  0.5269E+00
     -0.935  0.1337E+00  0.5425E+00
     -0.847  0.7668E-01  0.5516E+00
     -0.759  0.7117E-01  0.5576E+00
     -0.671  0.1559E+00  0.5657E+00
     -0.584  0.1300E+00  0.5791E+00
     -0.496  0.7816E-01  0.5872E+00
     -0.408  0.7945E-01  0.5940E+00
     -0.320  0.9342E-01  0.6016E+00
     -0.232  0.8643E-01  0.6098E+00
     -0.144  0.6371E-01  0.6163E+00
     -0.057  0.1486E+00  0.6247E+00
      0.031  0.6109E-01  0.6287E+00
      0.119  0.2343E+00  0.6425E+00
      0.207  0.1447E+00  0.6610E+00
      0.295  0.7281E-01  0.6691E+00
      0.382  0.1217E+00  0.6775E+00
      0.470  0.7338E-01  0.6860E+00
      0.558  0.1169E+00  0.6948E+00
      0.646  0.1025E+00  0.7046E+00
      0.734  0.7592E-01  0.7120E+00
      0.821  0.9165E-01  0.7193E+00
      0.909  0.1045E+00  0.7275E+00
      0.997  0.1808E+00  0.7392E+00
      1.085  0.1467E+00  0.7537E+00
      1.173  0.1432E+00  0.7665E+00
      1.261  0.1487E+00  0.7796E+00
      1.348  0.6398E-01  0.7894E+00
      1.436  0.9306E-01  0.7947E+00
      1.524  0.9455E-01  0.8052E+00
      1.612  0.1193E+00  0.8146E+00
      1.700  0.2079E+00  0.8275E+00
      1.787  0.1172E+00  0.8405E+00
      1.875  0.1014E+00  0.8490E+00
      1.963  0.2394E+00  0.8599E+00
      2.051  0.2334E+00  0.8770E+00
      2.139  0.1232E+00  0.8921E+00
      2.227  0.1998E+00  0.9046E+00
      2.314  0.7165E-01  0.9167E+00
      2.402  0.1947E+00  0.9246E+00
      2.490  0.2373E+00  0.9406E+00
      2.578  0.1587E+00  0.9561E+00
      2.666  0.1501E+00  0.9694E+00
      2.753  0.1449E+00  0.9833E+00
      2.841  0.3296E+00  0.9988E+00
      2.929  0.7328E-01  0.1008E+01
      3.017  0.1879E+00  0.1020E+01
      3.105  0.2171E+00  0.1038E+01
      3.193  0.1267E+00  0.1052E+01
      3.280  0.1586E+00  0.1065E+01
      3.368  0.1374E+00  0.1081E+01
      3.456  0.1180E+00  0.1092E+01
      3.544  0.9528E-01  0.1101E+01
      3.632  0.1074E+00  0.1110E+01
      3.719  0.1448E+00  0.1119E+01
      3.807  0.1986E+00  0.1136E+01
      3.895  0.1747E+00  0.1152E+01
      3.983  0.1282E+00  0.1164E+01
      4.071  0.9097E-01  0.1172E+01
      4.159  0.2379E+00  0.1188E+01
      4.246  0.1293E+00  0.1213E+01
      4.334  0.9094E-01  0.1220E+01
      4.422  0.1119E+00  0.1228E+01
      4.510  0.1364E+00  0.1239E+01
      4.598  0.1369E+00  0.1252E+01
      4.685  0.1012E+00  0.1262E+01
      4.773  0.8180E-01  0.1270E+01
      4.861  0.4559E-01  0.1276E+01
      4.949  0.1841E-01  0.1279E+01
      5.037  0.4553E-02  0.1280E+01
      5.125  0.1466E-02  0.1280E+01
      5.212  0.8289E-04  0.1280E+01
      5.300  0.0000E+00  0.1280E+01
      5.388  0.0000E+00  0.1280E+01
      5.476  0.0000E+00  0.1280E+01
      5.564  0.0000E+00  0.1280E+01
      5.651  0.0000E+00  0.1280E+01
      5.739  0.0000E+00  0.1280E+01
      5.827  0.0000E+00  0.1280E+01
      5.915  0.0000E+00  0.1280E+01
      6.003  0.0000E+00  0.1280E+01
      6.091  0.0000E+00  0.1280E+01
      6.178  0.0000E+00  0.1280E+01
      6.266  0.0000E+00  0.1280E+01
      6.354  0.0000E+00  0.1280E+01
      6.442  0.0000E+00  0.1280E+01
      6.530  0.0000E+00  0.1280E+01
      6.617  0.0000E+00  0.1280E+01
      6.705  0.0000E+00  0.1280E+01
      6.793  0.0000E+00  0.1280E+01
      6.881  0.0000E+00  0.1280E+01
      6.969  0.0000E+00  0.1280E+01
      7.057  0.0000E+00  0.1280E+01
      7.144  0.0000E+00  0.1280E+01
      7.232  0.0000E+00  0.1280E+01
      7.320  0.0000E+00  0.1280E+01
      7.408  0.0000E+00  0.1280E+01
      7.496  0.0000E+00  0.1280E+01
      7.583  0.0000E+00  0.1280E+01
      7.671  0.0000E+00  0.1280E+01
      7.759  0.0000E+00  0.1280E+01
      7.847  0.0000E+00  0.1280E+01
      7.935  0.0000E+00  0.1280E+01
      8.023  0.0000E+00  0.1280E+01
      8.110  0.0000E+00  0.1280E+01
      8.198  0.1783E-02  0.1280E+01
      8.286  0.1194E-01  0.1281E+01
      8.374  0.3160E-01  0.1282E+01
      8.462  0.1059E+00  0.1288E+01
      8.549  0.6838E-01  0.1297E+01
      8.637  0.1404E+00  0.1307E+01
      8.725  0.6834E-01  0.1315E+01
      8.813  0.6359E-01  0.1320E+01
      8.901  0.5892E-01  0.1325E+01
      8.988  0.8577E-01  0.1332E+01
      9.076  0.9253E-01  0.1341E+01
      9.164  0.9977E-01  0.1349E+01
      9.252  0.1113E+00  0.1358E+01
      9.340  0.9538E-01  0.1368E+01
      9.428  0.8528E-01  0.1375E+01
      9.515  0.9539E-01  0.1383E+01
      9.603  0.8949E-01  0.1392E+01
      9.691  0.1205E+00  0.1400E+01
      9.779  0.1483E+00  0.1413E+01
      9.867  0.6121E-01  0.1422E+01
      9.954  0.1992E+00  0.1432E+01
     10.042  0.9853E-01  0.1442E+01
     10.130  0.9627E-01  0.1451E+01
     10.218  0.7553E-01  0.1457E+01
     10.306  0.8487E-01  0.1465E+01
     10.394  0.8229E-01  0.1474E+01
     10.481  0.8450E-01  0.1481E+01
     10.569  0.1422E+00  0.1490E+01
     10.657  0.6681E-01  0.1499E+01
     10.745  0.6208E-01  0.1505E+01
     10.833  0.6192E-01  0.1510E+01
     10.920  0.8364E-01  0.1517E+01
     11.008  0.8834E-01  0.1525E+01
     11.096  0.7115E-01  0.1532E+01
     11.184  0.5604E-01  0.1538E+01
     11.272  0.8541E-01  0.1544E+01
     11.360  0.9180E-01  0.1552E+01
     11.447  0.9042E-01  0.1560E+01
     11.535  0.8034E-01  0.1567E+01
     11.623  0.6735E-01  0.1573E+01
     11.711  0.6380E-01  0.1579E+01
     11.799  0.6993E-01  0.1585E+01
     11.886  0.8671E-01  0.1592E+01
     11.974  0.8927E-01  0.1600E+01
     12.062  0.8241E-01  0.1607E+01
     12.150  0.6398E-01  0.1614E+01
     12.238  0.8748E-01  0.1619E+01
     12.326  0.1442E+00  0.1627E+01
     12.413  0.1668E+00  0.1641E+01
     12.501  0.4531E-01  0.1650E+01
     12.589  0.5712E-01  0.1654E+01
     12.677  0.1292E+00  0.1663E+01
     12.765  0.9043E-01  0.1672E+01
     12.852  0.1881E-01  0.1680E+01
     12.940  0.2388E+00  0.1683E+01
     13.028  0.0000E+00  0.1687E+01
     13.116  0.0000E+00  0.1687E+01
     13.204  0.0000E+00  0.1687E+01
     13.292  0.0000E+00  0.1687E+01
     13.379  0.0000E+00  0.1687E+01
     13.467  0.0000E+00  0.1687E+01
     13.555  0.0000E+00  0.1687E+01
     13.643  0.0000E+00  0.1687E+01
     13.731  0.0000E+00  0.1687E+01
     13.818  0.0000E+00  0.1687E+01
     13.906  0.0000E+00  0.1687E+01
     13.994  0.0000E+00  0.1687E+01
     14.082  0.0000E+00  0.1687E+01
     14.170  0.0000E+00  0.1687E+01
