[1652871522.050749] [c1006a-s11:150393:0]    ucp_context.c:1075 UCX  ERROR exceeded transports/devices limit (78 requested, up to 64 are supported)
 running on    1 total cores
 distrk:  each k-point on    1 cores,    1 groups
 distr:  one band on    1 cores,    1 groups
 OpenACC runtime initialized ...    1 GPUs detected
 vasp.6.2.0 18Jan21 (build Feb 25 2021 07:51:20) complex                         
 POSCAR found type information on POSCAR B C 
 POSCAR found :  2 types and     120 ions
 scaLAPACK will be used selectively (only on CPU)
 LDA part: xc-table for Pade appr. of Perdew
 -----------------------------------------------------------------------------
|                                                                             |
|           W    W    AA    RRRRR   N    N  II  N    N   GGGG   !!!           |
|           W    W   A  A   R    R  NN   N  II  NN   N  G    G  !!!           |
|           W    W  A    A  R    R  N N  N  II  N N  N  G       !!!           |
|           W WW W  AAAAAA  RRRRR   N  N N  II  N  N N  G  GGG   !            |
|           WW  WW  A    A  R   R   N   NN  II  N   NN  G    G                |
|           W    W  A    A  R    R  N    N  II  N    N   GGGG   !!!           |
|                                                                             |
|     The requested file  could not be found or opened for reading            |
|     k-point information. Automatic k-point generation is used as a          |
|     fallback, which may lead to unwanted results.                           |
|                                                                             |
 -----------------------------------------------------------------------------

 POSCAR, INCAR and KPOINTS ok, starting setup
 FFT: planning ...
 WAVECAR not read
 entering main loop
       N       E                     dE             d eps       ncg     rms          rms(c)
DAV:   1     0.155228927315E+04    0.15523E+04   -0.21996E+05  4048   0.179E+03
DAV:   2    -0.757705594641E+03   -0.23100E+04   -0.21662E+04  4912   0.317E+02
DAV:   3    -0.910025535896E+03   -0.15232E+03   -0.14960E+03  4896   0.712E+01
DAV:   4    -0.913888635024E+03   -0.38631E+01   -0.38356E+01  4872   0.115E+01
DAV:   5    -0.914004162997E+03   -0.11553E+00   -0.11527E+00  4832   0.188E+00    0.421E+01
RMM:   6    -0.861206925041E+03    0.52797E+02   -0.81809E+01  4048   0.130E+01    0.220E+01
RMM:   7    -0.853775474042E+03    0.74315E+01   -0.61251E+01  4048   0.115E+01    0.886E+00
RMM:   8    -0.853574158596E+03    0.20132E+00   -0.12062E+01  4048   0.542E+00    0.391E+00
RMM:   9    -0.852716870588E+03    0.85729E+00   -0.38338E+00  4048   0.298E+00    0.988E-01
RMM:  10    -0.852732335303E+03   -0.15465E-01   -0.49047E-01  4187   0.121E+00    0.809E-01
RMM:  11    -0.852711250414E+03    0.21085E-01   -0.73367E-02  4048   0.490E-01    0.164E-01
RMM:  12    -0.852713040750E+03   -0.17903E-02   -0.17225E-02  4085   0.223E-01    0.118E-01
RMM:  13    -0.852712766126E+03    0.27462E-03   -0.37459E-03  4184   0.985E-02    0.396E-02
RMM:  14    -0.852712828986E+03   -0.62859E-04   -0.10082E-03  4132   0.504E-02    0.794E-03
RMM:  15    -0.852712846047E+03   -0.17061E-04   -0.17935E-04  4370   0.226E-02    0.777E-03
RMM:  16    -0.852712846863E+03   -0.81594E-06   -0.33261E-05  4170   0.957E-03    0.442E-03
RMM:  17    -0.852712847457E+03   -0.59438E-06   -0.78716E-06  3792   0.489E-03
   1 F= -.85271285E+03 E0= -.85271285E+03  d E =-.852713E+03
 curvature:   0.00 expect dE= 0.000E+00 dE for cont linesearch  0.000E+00
 trial: gam= 0.00000 g(F)=  0.192E+02 g(S)=  0.592E+02 ort = 0.000E+00 (trialstep = 0.100E+01)
 search vector abs. value=  0.784E+02
 bond charge predicted
       N       E                     dE             d eps       ncg     rms          rms(c)
DAV:   1    -0.879404118511E+03   -0.26691E+02   -0.36137E+03  4374   0.123E+02    0.450E+01
RMM:   2    -0.864045583475E+03    0.15359E+02   -0.17353E+02  4048   0.266E+01    0.173E+01
RMM:   3    -0.856485525147E+03    0.75601E+01   -0.28491E+01  4048   0.104E+01    0.111E+01
RMM:   4    -0.854875588642E+03    0.16099E+01   -0.87619E+00  4053   0.528E+00    0.415E+00
RMM:   5    -0.854907707898E+03   -0.32119E-01   -0.10223E+00  4144   0.196E+00    0.185E+00
RMM:   6    -0.854918217276E+03   -0.10509E-01   -0.23798E-01  4128   0.863E-01    0.336E-01
RMM:   7    -0.854920163365E+03   -0.19461E-02   -0.48219E-02  4183   0.382E-01    0.369E-01
RMM:   8    -0.854921291942E+03   -0.11286E-02   -0.10766E-02  4217   0.180E-01    0.519E-02
RMM:   9    -0.854921441414E+03   -0.14947E-03   -0.22792E-03  4188   0.816E-02    0.372E-02
RMM:  10    -0.854921482043E+03   -0.40629E-04   -0.46764E-04  4192   0.391E-02    0.701E-03
RMM:  11    -0.854921493596E+03   -0.11553E-04   -0.12797E-04  4350   0.185E-02    0.568E-03
RMM:  12    -0.854921495317E+03   -0.17216E-05   -0.21056E-05  3818   0.823E-03    0.320E-03
RMM:  13    -0.854921495933E+03   -0.61588E-06   -0.62930E-06  3383   0.418E-03
   2 F= -.85492150E+03 E0= -.85492150E+03  d E =-.220865E+01
 trial-energy change:   -2.208648  1 .order   -1.912510  -78.408920   74.583900
 step:   0.5154(harm=  0.5125)  dis= 0.07970  next Energy=  -872.959424 (dE=-0.202E+02)
 bond charge predicted
       N       E                     dE             d eps       ncg     rms          rms(c)
DAV:   1    -0.879777435571E+03   -0.24856E+02   -0.86800E+02  4315   0.610E+01    0.169E+01
RMM:   2    -0.874774715646E+03    0.50027E+01   -0.30899E+01  4048   0.113E+01    0.829E+00
RMM:   3    -0.872803834372E+03    0.19709E+01   -0.81660E+00  4048   0.517E+00    0.366E+00
RMM:   4    -0.872725090035E+03    0.78744E-01   -0.10620E+00  4067   0.205E+00    0.206E+00
RMM:   5    -0.872728136955E+03   -0.30469E-02   -0.20982E-01  4086   0.858E-01    0.681E-01
RMM:   6    -0.872729931111E+03   -0.17942E-02   -0.56230E-02  4094   0.418E-01    0.419E-01
RMM:   7    -0.872730787403E+03   -0.85629E-03   -0.10790E-02  4183   0.189E-01    0.609E-02
RMM:   8    -0.872731006659E+03   -0.21926E-03   -0.25646E-03  4195   0.872E-02    0.697E-02
RMM:   9    -0.872731042255E+03   -0.35596E-04   -0.42842E-04  4119   0.381E-02    0.198E-02
RMM:  10    -0.872731051912E+03   -0.96570E-05   -0.12307E-04  4231   0.186E-02    0.689E-03
RMM:  11    -0.872731053478E+03   -0.15666E-05   -0.21761E-05  3849   0.821E-03    0.420E-03
RMM:  12    -0.872731053601E+03   -0.12267E-06   -0.58600E-06  3433   0.414E-03
   3 F= -.87273105E+03 E0= -.87273105E+03  d E =-.200182E+02
 curvature:  -0.26 expect dE=-0.298E+01 dE for cont linesearch -0.549E-04
 trial: gam= 0.14983 g(F)=  0.973E+01 g(S)=  0.188E+01 ort =-0.130E+00 (trialstep = 0.903E+00)
 search vector abs. value=  0.133E+02
 bond charge predicted
       N       E                     dE             d eps       ncg     rms          rms(c)
DAV:   1    -0.876546548976E+03   -0.38155E+01   -0.40501E+02  4403   0.432E+01    0.637E+00
RMM:   2    -0.876071579311E+03    0.47497E+00   -0.69381E+00  4048   0.560E+00    0.351E+00
RMM:   3    -0.875798455958E+03    0.27312E+00   -0.19702E+00  4048   0.246E+00    0.105E+00
RMM:   4    -0.875807690432E+03   -0.92345E-02   -0.23992E-01  4080   0.938E-01    0.612E-01
RMM:   5    -0.875810046285E+03   -0.23559E-02   -0.60942E-02  4083   0.438E-01    0.155E-01
RMM:   6    -0.875810535683E+03   -0.48940E-03   -0.15110E-02  4141   0.206E-01    0.151E-01
RMM:   7    -0.875810826910E+03   -0.29123E-03   -0.31286E-03  4161   0.973E-02    0.253E-02
RMM:   8    -0.875810857671E+03   -0.30761E-04   -0.65933E-04  4189   0.430E-02    0.251E-02
RMM:   9    -0.875810871106E+03   -0.13435E-04   -0.14130E-04  4180   0.200E-02    0.590E-03
RMM:  10    -0.875810872887E+03   -0.17808E-05   -0.28697E-05  4193   0.906E-03    0.503E-03
RMM:  11    -0.875810873154E+03   -0.26730E-06   -0.66965E-06  3477   0.446E-03
   4 F= -.87581087E+03 E0= -.87581087E+03  d E =-.307982E+01
 trial-energy change:   -3.079820  1 .order   -3.075113  -10.474733    4.324507
 step:   0.6392(harm=  0.6392)  dis= 0.03886  next Energy=  -876.438002 (dE=-0.371E+01)
 bond charge predicted
       N       E                     dE             d eps       ncg     rms          rms(c)
DAV:   1    -0.876518059711E+03   -0.70719E+00   -0.34753E+01  4355   0.127E+01    0.179E+00
RMM:   2    -0.876468874375E+03    0.49185E-01   -0.53715E-01  4048   0.157E+00    0.102E+00
RMM:   3    -0.876445405133E+03    0.23469E-01   -0.19324E-01  4048   0.740E-01    0.222E-01
RMM:   4    -0.876446022517E+03   -0.61738E-03   -0.19139E-02  4055   0.278E-01    0.142E-01
RMM:   5    -0.876446218590E+03   -0.19607E-03   -0.60680E-03  4074   0.137E-01    0.410E-02
RMM:   6    -0.876446216946E+03    0.16444E-05   -0.14165E-03  4100   0.648E-02    0.330E-02
RMM:   7    -0.876446244858E+03   -0.27912E-04   -0.34004E-04  4197   0.301E-02    0.864E-03
RMM:   8    -0.876446246308E+03   -0.14505E-05   -0.58245E-05  4165   0.127E-02    0.598E-03
RMM:   9    -0.876446247589E+03   -0.12805E-05   -0.13647E-05  4005   0.611E-03    0.212E-03
RMM:  10    -0.876446247593E+03   -0.44447E-08   -0.26126E-06  2799   0.283E-03
   5 F= -.87644625E+03 E0= -.87644625E+03  d E =-.371519E+01
 curvature:  -0.37 expect dE=-0.525E+00 dE for cont linesearch -0.178E-04
 trial: gam= 0.09967 g(F)=  0.139E+01 g(S)=  0.366E-01 ort =-0.254E-01 (trialstep = 0.850E+00)
 search vector abs. value=  0.156E+01
 bond charge predicted
       N       E                     dE             d eps       ncg     rms          rms(c)
DAV:   1    -0.876826325330E+03   -0.38008E+00   -0.76650E+01  4214   0.185E+01    0.229E+00
RMM:   2    -0.876797762310E+03    0.28563E-01   -0.15082E+00  4048   0.256E+00    0.127E+00
RMM:   3    -0.876766390223E+03    0.31372E-01   -0.29995E-01  4048   0.102E+00    0.640E-01
RMM:   4    -0.876767675347E+03   -0.12851E-02   -0.42508E-02  4065   0.410E-01    0.399E-01
RMM:   5    -0.876768164653E+03   -0.48931E-03   -0.10480E-02  4069   0.193E-01    0.996E-02
RMM:   6    -0.876768284863E+03   -0.12021E-03   -0.30997E-03  4114   0.962E-02    0.750E-02
RMM:   7    -0.876768330288E+03   -0.45425E-04   -0.57875E-04  4146   0.441E-02    0.197E-02
RMM:   8    -0.876768338481E+03   -0.81929E-05   -0.12729E-04  4208   0.198E-02    0.111E-02
RMM:   9    -0.876768340515E+03   -0.20345E-05   -0.25576E-05  4097   0.903E-03    0.236E-03
RMM:  10    -0.876768340863E+03   -0.34792E-06   -0.60808E-06  3472   0.441E-03
   6 F= -.87676834E+03 E0= -.87676834E+03  d E =-.322093E+00
 trial-energy change:   -0.322093  1 .order   -0.343631   -1.212695    0.525433
 step:   0.5795(harm=  0.5933)  dis= 0.01701  next Energy=  -876.852694 (dE=-0.406E+00)
 bond charge predicted
       N       E                     dE             d eps       ncg     rms          rms(c)
DAV:   1    -0.876858556212E+03   -0.90216E-01   -0.77529E+00  4254   0.585E+00    0.668E-01
RMM:   2    -0.876855468153E+03    0.30881E-02   -0.14649E-01  4048   0.802E-01    0.396E-01
RMM:   3    -0.876852297647E+03    0.31705E-02   -0.32435E-02  4048   0.328E-01    0.146E-01
RMM:   4    -0.876852505200E+03   -0.20755E-03   -0.41030E-03  4066   0.130E-01    0.954E-02
RMM:   5    -0.876852552333E+03   -0.47132E-04   -0.10598E-03  4071   0.614E-02    0.279E-02
RMM:   6    -0.876852565637E+03   -0.13304E-04   -0.25947E-04  4161   0.287E-02    0.214E-02
RMM:   7    -0.876852568634E+03   -0.29970E-05   -0.57386E-05  4097   0.137E-02    0.454E-03
RMM:   8    -0.876852568999E+03   -0.36555E-06   -0.12433E-05  4062   0.622E-03    0.336E-03
RMM:   9    -0.876852569299E+03   -0.30032E-06   -0.30009E-06  2889   0.305E-03
   7 F= -.87685257E+03 E0= -.87685257E+03  d E =-.406322E+00
 curvature:  -0.32 expect dE=-0.295E+00 dE for cont linesearch -0.170E-06
 trial: gam= 0.63231 g(F)=  0.843E+00 g(S)=  0.719E-01 ort = 0.905E-03 (trialstep = 0.796E+00)
 search vector abs. value=  0.154E+01
 bond charge predicted
       N       E                     dE             d eps       ncg     rms          rms(c)
DAV:   1    -0.876897186389E+03   -0.44617E-01   -0.49220E+01  4148   0.147E+01    0.204E+00
RMM:   2    -0.876900077305E+03   -0.28909E-02   -0.11329E+00  4048   0.225E+00    0.129E+00
RMM:   3    -0.876873521554E+03    0.26556E-01   -0.26467E-01  4048   0.930E-01    0.345E-01
RMM:   4    -0.876875443346E+03   -0.19218E-02   -0.32907E-02  4074   0.371E-01    0.231E-01
RMM:   5    -0.876875630920E+03   -0.18757E-03   -0.86482E-03  4074   0.175E-01    0.527E-02
RMM:   6    -0.876875677457E+03   -0.46537E-04   -0.18791E-03  4122   0.786E-02    0.493E-02
RMM:   7    -0.876875708817E+03   -0.31360E-04   -0.48933E-04  4103   0.386E-02    0.110E-02
RMM:   8    -0.876875708446E+03    0.37078E-06   -0.97228E-05  4127   0.177E-02    0.819E-03
RMM:   9    -0.876875710941E+03   -0.24952E-05   -0.29153E-05  4100   0.890E-03    0.314E-03
RMM:  10    -0.876875710804E+03    0.13788E-06   -0.58450E-06  3406   0.423E-03
   8 F= -.87687571E+03 E0= -.87687571E+03  d E =-.231415E-01
 trial-energy change:   -0.023142  1 .order   -0.024914   -0.729069    0.679241
 step:   0.4107(harm=  0.4122)  dis= 0.01260  next Energy=  -877.040355 (dE=-0.188E+00)
 bond charge predicted
       N       E                     dE             d eps       ncg     rms          rms(c)
DAV:   1    -0.877045458248E+03   -0.16975E+00   -0.11532E+01  4148   0.711E+00    0.999E-01
RMM:   2    -0.877045952912E+03   -0.49466E-03   -0.26387E-01  4048   0.109E+00    0.623E-01
RMM:   3    -0.877039792761E+03    0.61602E-02   -0.62399E-02  4048   0.451E-01    0.158E-01
RMM:   4    -0.877040231858E+03   -0.43910E-03   -0.76588E-03  4072   0.180E-01    0.100E-01
RMM:   5    -0.877040251246E+03   -0.19389E-04   -0.19965E-03  4071   0.848E-02    0.226E-02
RMM:   6    -0.877040264869E+03   -0.13622E-04   -0.41024E-04  4142   0.371E-02    0.189E-02
RMM:   7    -0.877040270898E+03   -0.60286E-05   -0.10892E-04  4097   0.182E-02    0.450E-03
RMM:   8    -0.877040271327E+03   -0.42925E-06   -0.21340E-05  4114   0.832E-03    0.344E-03
RMM:   9    -0.877040271783E+03   -0.45655E-06   -0.61250E-06  3370   0.413E-03
   9 F= -.87704027E+03 E0= -.87704027E+03  d E =-.187702E+00
 curvature:  -0.35 expect dE=-0.116E+00 dE for cont linesearch -0.183E-06
 trial: gam= 0.35533 g(F)=  0.280E+00 g(S)=  0.549E-01 ort = 0.902E-03 (trialstep = 0.719E+00)
 search vector abs. value=  0.530E+00
 bond charge predicted
       N       E                     dE             d eps       ncg     rms          rms(c)
DAV:   1    -0.877176661934E+03   -0.13639E+00   -0.13615E+01  4102   0.798E+00    0.112E+00
RMM:   2    -0.877149445704E+03    0.27216E-01   -0.23543E-01  4048   0.102E+00    0.616E-01
RMM:   3    -0.877142855480E+03    0.65902E-02   -0.77159E-02  4048   0.476E-01    0.193E-01
RMM:   4    -0.877142848134E+03    0.73456E-05   -0.81763E-03  4078   0.185E-01    0.115E-01
RMM:   5    -0.877142921484E+03   -0.73349E-04   -0.24533E-03  4090   0.906E-02    0.320E-02
RMM:   6    -0.877142949738E+03   -0.28255E-04   -0.57369E-04  4109   0.420E-02    0.260E-02
RMM:   7    -0.877142952155E+03   -0.24164E-05   -0.12550E-04  4149   0.206E-02    0.472E-03
RMM:   8    -0.877142954266E+03   -0.21111E-05   -0.26621E-05  4166   0.895E-03    0.347E-03
RMM:   9    -0.877142954760E+03   -0.49396E-06   -0.55157E-06  3340   0.416E-03
  10 F= -.87714295E+03 E0= -.87714295E+03  d E =-.102683E+00
 trial-energy change:   -0.102683  1 .order   -0.101743   -0.240968    0.037483
 step:   0.6239(harm=  0.6223)  dis= 0.00921  next Energy=  -877.145432 (dE=-0.105E+00)
 bond charge predicted
       N       E                     dE             d eps       ncg     rms          rms(c)
DAV:   1    -0.877146043308E+03   -0.30890E-02   -0.23885E-01  4296   0.106E+00    0.150E-01
RMM:   2    -0.877145559814E+03    0.48349E-03   -0.41975E-03  4048   0.135E-01    0.819E-02
RMM:   3    -0.877145438905E+03    0.12091E-03   -0.13680E-03  4048   0.634E-02    0.266E-02
RMM:   4    -0.877145438904E+03    0.92541E-09   -0.14608E-04  4077   0.247E-02    0.162E-02
RMM:   5    -0.877145439933E+03   -0.10289E-05   -0.43759E-05  4097   0.120E-02    0.474E-03
RMM:   6    -0.877145440486E+03   -0.55286E-06   -0.10575E-05  4040   0.567E-03    0.390E-03
RMM:   7    -0.877145440542E+03   -0.55986E-07   -0.22366E-06  2700   0.277E-03
  11 F= -.87714544E+03 E0= -.87714544E+03  d E =-.105169E+00
 curvature:  -0.49 expect dE=-0.496E-01 dE for cont linesearch -0.873E-08
 trial: gam= 0.29219 g(F)=  0.864E-01 g(S)=  0.145E-01 ort =-0.970E-04 (trialstep = 0.700E+00)
 search vector abs. value=  0.146E+00
 bond charge predicted
       N       E                     dE             d eps       ncg     rms          rms(c)
DAV:   1    -0.877191332951E+03   -0.45892E-01   -0.45427E+00  4088   0.465E+00    0.533E-01
RMM:   2    -0.877187739845E+03    0.35931E-02   -0.59635E-02  4048   0.513E-01    0.293E-01
RMM:   3    -0.877186576857E+03    0.11630E-02   -0.17247E-02  4048   0.231E-01    0.925E-02
RMM:   4    -0.877186648141E+03   -0.71284E-04   -0.21344E-03  4112   0.904E-02    0.544E-02
RMM:   5    -0.877186676780E+03   -0.28639E-04   -0.58848E-04  4116   0.435E-02    0.161E-02
RMM:   6    -0.877186683812E+03   -0.70323E-05   -0.11119E-04  4140   0.186E-02    0.117E-02
RMM:   7    -0.877186686188E+03   -0.23759E-05   -0.24188E-05  4103   0.891E-03    0.174E-03
RMM:   8    -0.877186686494E+03   -0.30590E-06   -0.52267E-06  3273   0.401E-03
  12 F= -.87718669E+03 E0= -.87718669E+03  d E =-.412460E-01
 trial-energy change:   -0.041246  1 .order   -0.041335   -0.070560   -0.012109
 step:   0.8450(harm=  0.8450)  dis= 0.00845  next Energy=  -877.188029 (dE=-0.426E-01)
 bond charge predicted
       N       E                     dE             d eps       ncg     rms          rms(c)
DAV:   1    -0.877188154407E+03   -0.14682E-02   -0.19493E-01  4544   0.962E-01    0.110E-01
RMM:   2    -0.877188000460E+03    0.15395E-03   -0.25588E-03  4048   0.106E-01    0.606E-02
RMM:   3    -0.877187949120E+03    0.51341E-04   -0.74392E-04  4048   0.479E-02    0.189E-02
RMM:   4    -0.877187952030E+03   -0.29101E-05   -0.92982E-05  4119   0.188E-02    0.111E-02
RMM:   5    -0.877187953103E+03   -0.10735E-05   -0.25158E-05  4109   0.902E-03    0.327E-03
RMM:   6    -0.877187953511E+03   -0.40775E-06   -0.48739E-06  3275   0.387E-03
  13 F= -.87718795E+03 E0= -.87718795E+03  d E =-.425130E-01
 curvature:  -0.61 expect dE=-0.260E-01 dE for cont linesearch -0.850E-07
 trial: gam= 0.42741 g(F)=  0.353E-01 g(S)=  0.730E-02 ort = 0.142E-03 (trialstep = 0.729E+00)
 search vector abs. value=  0.694E-01
 bond charge predicted
       N       E                     dE             d eps       ncg     rms          rms(c)
DAV:   1    -0.877207556603E+03   -0.19603E-01   -0.19586E+00  4088   0.307E+00    0.326E-01
RMM:   2    -0.877207407965E+03    0.14864E-03   -0.20222E-02  4048   0.303E-01    0.193E-01
RMM:   3    -0.877207006918E+03    0.40105E-03   -0.50762E-03  4048   0.127E-01    0.417E-02
RMM:   4    -0.877207064703E+03   -0.57786E-04   -0.83798E-04  4190   0.490E-02    0.241E-02
RMM:   5    -0.877207072641E+03   -0.79381E-05   -0.15735E-04  4063   0.222E-02    0.734E-03
RMM:   6    -0.877207074017E+03   -0.13756E-05   -0.33399E-05  4122   0.984E-03    0.591E-03
RMM:   7    -0.877207075034E+03   -0.10167E-05   -0.81849E-06  3720   0.488E-03    0.165E-03
RMM:   8    -0.877207075027E+03    0.69929E-08   -0.16875E-06  2616   0.224E-03
  14 F= -.87720708E+03 E0= -.87720708E+03  d E =-.191215E-01
 trial-energy change:   -0.019122  1 .order   -0.019105   -0.031074   -0.007135
 step:   0.9463(harm=  0.9463)  dis= 0.00669  next Energy=  -877.208121 (dE=-0.202E-01)
 bond charge predicted
       N       E                     dE             d eps       ncg     rms          rms(c)
DAV:   1    -0.877208192015E+03   -0.11170E-02   -0.17401E-01  4456   0.914E-01    0.973E-02
RMM:   2    -0.877208180524E+03    0.11491E-04   -0.18078E-03  4048   0.906E-02    0.575E-02
RMM:   3    -0.877208146946E+03    0.33578E-04   -0.45217E-04  4048   0.379E-02    0.126E-02
RMM:   4    -0.877208152283E+03   -0.53371E-05   -0.74902E-05  4186   0.147E-02    0.722E-03
RMM:   5    -0.877208153206E+03   -0.92310E-06   -0.14116E-05  4060   0.663E-03    0.219E-03
RMM:   6    -0.877208153338E+03   -0.13116E-06   -0.30243E-06  2836   0.294E-03
  15 F= -.87720815E+03 E0= -.87720815E+03  d E =-.201998E-01
 curvature:  -0.77 expect dE=-0.143E-01 dE for cont linesearch -0.474E-07
 trial: gam= 0.43928 g(F)=  0.156E-01 g(S)=  0.294E-02 ort =-0.654E-04 (trialstep = 0.772E+00)
 search vector abs. value=  0.319E-01
 bond charge predicted
       N       E                     dE             d eps       ncg     rms          rms(c)
DAV:   1    -0.877211414576E+03   -0.32614E-02   -0.10134E+00  4086   0.218E+00    0.284E-01
RMM:   2    -0.877211248616E+03    0.16596E-03   -0.19049E-02  4048   0.281E-01    0.177E-01
RMM:   3    -0.877210711367E+03    0.53725E-03   -0.48149E-03  4048   0.125E-01    0.440E-02
RMM:   4    -0.877210757206E+03   -0.45839E-04   -0.64454E-04  4096   0.502E-02    0.303E-02
RMM:   5    -0.877210763050E+03   -0.58446E-05   -0.16656E-04  4073   0.240E-02    0.693E-03
RMM:   6    -0.877210763924E+03   -0.87385E-06   -0.36426E-05  4152   0.109E-02    0.681E-03
RMM:   7    -0.877210764771E+03   -0.84667E-06   -0.83050E-06  3725   0.509E-03
  16 F= -.87721076E+03 E0= -.87721076E+03  d E =-.261143E-02
 trial-energy change:   -0.002611  1 .order   -0.002586   -0.014335    0.009163
 step:   0.4724(harm=  0.4713)  dis= 0.00207  next Energy=  -877.212543 (dE=-0.439E-02)
 bond charge predicted
       N       E                     dE             d eps       ncg     rms          rms(c)
DAV:   1    -0.877212647429E+03   -0.18835E-02   -0.15292E-01  4126   0.847E-01    0.110E-01
RMM:   2    -0.877212617971E+03    0.29457E-04   -0.28678E-03  4048   0.109E-01    0.686E-02
RMM:   3    -0.877212533877E+03    0.84094E-04   -0.72039E-04  4048   0.484E-02    0.173E-02
RMM:   4    -0.877212540600E+03   -0.67224E-05   -0.96383E-05  4095   0.194E-02    0.120E-02
RMM:   5    -0.877212541167E+03   -0.56731E-06   -0.24781E-05  4066   0.927E-03    0.273E-03
RMM:   6    -0.877212541272E+03   -0.10480E-06   -0.55064E-06  3329   0.423E-03
  17 F= -.87721254E+03 E0= -.87721254E+03  d E =-.438793E-02
 curvature:  -0.41 expect dE=-0.499E-02 dE for cont linesearch -0.324E-08
 trial: gam= 0.66240 g(F)=  0.117E-01 g(S)=  0.641E-03 ort = 0.160E-04 (trialstep = 0.712E+00)
 search vector abs. value=  0.263E-01
 bond charge predicted
       N       E                     dE             d eps       ncg     rms          rms(c)
DAV:   1    -0.877214397496E+03   -0.18563E-02   -0.64146E-01  4119   0.172E+00    0.218E-01
RMM:   2    -0.877214203253E+03    0.19424E-03   -0.11378E-02  4048   0.223E-01    0.130E-01
RMM:   3    -0.877213925986E+03    0.27727E-03   -0.30322E-03  4048   0.986E-02    0.347E-02
RMM:   4    -0.877213948882E+03   -0.22896E-04   -0.38373E-04  4098   0.390E-02    0.239E-02
RMM:   5    -0.877213952935E+03   -0.40532E-05   -0.10709E-04  4074   0.190E-02    0.593E-03
RMM:   6    -0.877213953418E+03   -0.48365E-06   -0.23817E-05  4138   0.872E-03    0.569E-03
RMM:   7    -0.877213953917E+03   -0.49853E-06   -0.54220E-06  3262   0.400E-03
  18 F= -.87721395E+03 E0= -.87721395E+03  d E =-.141265E-02
 trial-energy change:   -0.001413  1 .order   -0.001402   -0.008783    0.005979
 step:   0.4239(harm=  0.4239)  dis= 0.00166  next Energy=  -877.215154 (dE=-0.261E-02)
 bond charge predicted
       N       E                     dE             d eps       ncg     rms          rms(c)
DAV:   1    -0.877215234389E+03   -0.12810E-02   -0.10521E-01  4150   0.698E-01    0.882E-02
RMM:   2    -0.877215200749E+03    0.33640E-04   -0.18549E-03  4048   0.902E-02    0.527E-02
RMM:   3    -0.877215154405E+03    0.46344E-04   -0.49188E-04  4048   0.397E-02    0.141E-02
RMM:   4    -0.877215158323E+03   -0.39179E-05   -0.62354E-05  4098   0.157E-02    0.966E-03
RMM:   5    -0.877215158919E+03   -0.59578E-06   -0.17299E-05  4062   0.765E-03    0.241E-03
RMM:   6    -0.877215158966E+03   -0.47788E-07   -0.38461E-06  3030   0.351E-03
  19 F= -.87721516E+03 E0= -.87721516E+03  d E =-.261769E-02
 curvature:  -0.45 expect dE=-0.495E-03 dE for cont linesearch -0.329E-07
 trial: gam= 0.08808 g(F)=  0.971E-03 g(S)=  0.122E-03 ort = 0.438E-04 (trialstep = 0.655E+00)
 search vector abs. value=  0.131E-02
 bond charge predicted
       N       E                     dE             d eps       ncg     rms          rms(c)
DAV:   1    -0.877215580169E+03   -0.42125E-03   -0.33574E-02  4235   0.386E-01    0.500E-02
RMM:   2    -0.877215563354E+03    0.16816E-04   -0.56897E-04  4048   0.502E-02    0.289E-02
RMM:   3    -0.877215548151E+03    0.15203E-04   -0.14055E-04  4048   0.221E-02    0.646E-03
RMM:   4    -0.877215549145E+03   -0.99403E-06   -0.17083E-05  4098   0.839E-03    0.402E-03
RMM:   5    -0.877215549523E+03   -0.37817E-06   -0.43806E-06  3183   0.391E-03
  20 F= -.87721555E+03 E0= -.87721555E+03  d E =-.390557E-03
 trial-energy change:   -0.000391  1 .order   -0.000390   -0.000718   -0.000063
 step:   0.7173(harm=  0.7173)  dis= 0.00062  next Energy=  -877.215552 (dE=-0.393E-03)
 bond charge predicted
       N       E                     dE             d eps       ncg     rms          rms(c)
DAV:   1    -0.877215553097E+03   -0.39517E-05   -0.31047E-04  4688   0.370E-02    0.498E-03
RMM:   2    -0.877215553091E+03    0.56316E-08   -0.57280E-06  3655   0.503E-03
  21 F= -.87721555E+03 E0= -.87721555E+03  d E =-.394125E-03
 curvature:  -0.43 expect dE=-0.156E-03 dE for cont linesearch -0.654E-07
 trial: gam= 0.32231 g(F)=  0.330E-03 g(S)=  0.363E-04 ort = 0.141E-04 (trialstep = 0.667E+00)
 search vector abs. value=  0.511E-03
 bond charge predicted
       N       E                     dE             d eps       ncg     rms          rms(c)
DAV:   1    -0.877215714216E+03   -0.16112E-03   -0.88746E-03  4129   0.201E-01    0.253E-02
RMM:   2    -0.877215717907E+03   -0.36911E-05   -0.13133E-04  4048   0.244E-02    0.149E-02
RMM:   3    -0.877215717241E+03    0.66539E-06   -0.29167E-05  4048   0.103E-02    0.332E-03
RMM:   4    -0.877215717797E+03   -0.55555E-06   -0.46288E-06  3221   0.400E-03
  22 F= -.87721572E+03 E0= -.87721572E+03  d E =-.164706E-03
 trial-energy change:   -0.000165  1 .order   -0.000158   -0.000248   -0.000069
 step:   0.8694(harm=  0.9253)  dis= 0.00068  next Energy=  -877.215728 (dE=-0.175E-03)
 bond charge predicted
       N       E                     dE             d eps       ncg     rms          rms(c)
DAV:   1    -0.877215730331E+03   -0.13089E-04   -0.81843E-04  4448   0.610E-02    0.775E-03
RMM:   2    -0.877215730871E+03   -0.54039E-06   -0.13074E-05  4048   0.774E-03    0.461E-03
RMM:   3    -0.877215731021E+03   -0.14995E-06   -0.29353E-06  2815   0.324E-03
  23 F= -.87721573E+03 E0= -.87721573E+03  d E =-.177930E-03
 curvature:  -0.61 expect dE=-0.953E-04 dE for cont linesearch -0.566E-06
 trial: gam= 0.38072 g(F)=  0.150E-03 g(S)=  0.721E-05 ort = 0.218E-04 (trialstep = 0.708E+00)
 search vector abs. value=  0.248E-03
 bond charge predicted
       N       E                     dE             d eps       ncg     rms          rms(c)
DAV:   1    -0.877215787245E+03   -0.56374E-04   -0.73576E-03  4143   0.183E-01    0.204E-02
RMM:   2    -0.877215787757E+03   -0.51171E-06   -0.10217E-04  4048   0.211E-02    0.120E-02
RMM:   3    -0.877215785737E+03    0.20193E-05   -0.23212E-05  4048   0.908E-03    0.357E-03
RMM:   4    -0.877215786027E+03   -0.28973E-06   -0.31583E-06  2882   0.351E-03
  24 F= -.87721579E+03 E0= -.87721579E+03  d E =-.550062E-04
 trial-energy change:   -0.000055  1 .order   -0.000055   -0.000117    0.000007
 step:   0.6690(harm=  0.6690)  dis= 0.00026  next Energy=  -877.215786 (dE=-0.553E-04)
 bond charge predicted
       N       E                     dE             d eps       ncg     rms          rms(c)
DAV:   1    -0.877215786283E+03   -0.54601E-06   -0.22811E-05  4728   0.102E-02    0.127E-03
RMM:   2    -0.877215786280E+03    0.32874E-08   -0.26020E-07  2242   0.109E-03
  25 F= -.87721579E+03 E0= -.87721579E+03  d E =-.552592E-04
 curvature:  -0.50 expect dE=-0.716E-04 dE for cont linesearch -0.152E-09
 trial: gam= 0.98666 g(F)=  0.141E-03 g(S)=  0.144E-05 ort =-0.274E-06 (trialstep = 0.452E+00)
 search vector abs. value=  0.383E-03
 bond charge predicted
       N       E                     dE             d eps       ncg     rms          rms(c)
DAV:   1    -0.877215807782E+03   -0.21498E-04   -0.33450E-03  4172   0.122E-01    0.182E-02
RMM:   2    -0.877215811082E+03   -0.32998E-05   -0.64984E-05  4048   0.170E-02    0.113E-02
RMM:   3    -0.877215810245E+03    0.83655E-06   -0.12663E-05  4048   0.671E-03    0.256E-03
RMM:   4    -0.877215810411E+03   -0.16585E-06   -0.19335E-06  2673   0.272E-03
  26 F= -.87721581E+03 E0= -.87721581E+03  d E =-.241306E-04
 trial-energy change:   -0.000024  1 .order   -0.000025   -0.000064    0.000015
 step:   0.3666(harm=  0.3666)  dis= 0.00036  next Energy=  -877.215812 (dE=-0.261E-04)
 bond charge predicted
       N       E                     dE             d eps       ncg     rms          rms(c)
DAV:   1    -0.877215811567E+03   -0.13225E-05   -0.11729E-04  4288   0.229E-02    0.327E-03
RMM:   2    -0.877215811660E+03   -0.92354E-07   -0.18716E-06  2547   0.283E-03
  27 F= -.87721581E+03 E0= -.87721581E+03  d E =-.253796E-04
 curvature:  -0.49 expect dE=-0.150E-04 dE for cont linesearch -0.819E-08
 trial: gam= 0.16824 g(F)=  0.293E-04 g(S)=  0.117E-05 ort = 0.252E-05 (trialstep = 0.435E+00)
 search vector abs. value=  0.422E-04
 bond charge predicted
       N       E                     dE             d eps       ncg     rms          rms(c)
DAV:   1    -0.877215821765E+03   -0.10197E-04   -0.44009E-04  4132   0.444E-02    0.517E-03
RMM:   2    -0.877215821875E+03   -0.11087E-06   -0.77279E-06  3919   0.581E-03
  28 F= -.87721582E+03 E0= -.87721582E+03  d E =-.102156E-04
 trial-energy change:   -0.000010  1 .order   -0.000009   -0.000013   -0.000005
 step:   0.7208(harm=  0.7208)  dis= 0.00015  next Energy=  -877.215823 (dE=-0.111E-04)
 bond charge predicted
       N       E                     dE             d eps       ncg     rms          rms(c)
DAV:   1    -0.877215823437E+03   -0.16722E-05   -0.18407E-04  4408   0.290E-02    0.410E-03
RMM:   2    -0.877215823505E+03   -0.68647E-07   -0.33693E-06  2914   0.387E-03
  29 F= -.87721582E+03 E0= -.87721582E+03  d E =-.118456E-04
 curvature:  -0.49 expect dE=-0.420E-05 dE for cont linesearch -0.485E-10
 trial: gam= 0.26808 g(F)=  0.842E-05 g(S)=  0.113E-06 ort = 0.645E-07 (trialstep = 0.492E+00)
 search vector abs. value=  0.116E-04
 reached required accuracy - stopping structural energy minimisation
Warning: ieee_invalid is signaling
Warning: ieee_divide_by_zero is signaling
Warning: ieee_underflow is signaling
Warning: ieee_inexact is signaling
FORTRAN STOP
