 vasp.6.2.0 18Jan21 (build Feb 25 2021 07:51:20) complex                         
 executed on             LinuxPGI date 2022.05.18  06:58:43
 running on    1 total cores
 distrk:  each k-point on    1 cores,    1 groups
 distr:  one band on NCORE=   1 cores,    1 groups


--------------------------------------------------------------------------------------------------------


 INCAR:
   ALGO = Fast
   PREC = Accurate
   EDIFF = 1E-6
   ENCUT = 700
   ISMEAR = -5
   IBRION = 2
   ISIF = 4
   LREAL = Auto
   LWAVE = False
   LCHARGE = False
   NSW = 300
   SIGMA = 0.05

 POTCAR:    PAW_PBE B 06Sep2000                   
 POTCAR:    PAW_PBE C 08Apr2002                   
 POTCAR:    PAW_PBE B 06Sep2000                   
   VRHFIN =B: s2p1                                                                                  
   LEXCH  = PE                                                                                      
   EATOM  =    71.1703 eV,    5.2309 Ry                                                             
                                                                                                    
   TITEL  = PAW_PBE B 06Sep2000                                                                     
   LULTRA =        F    use ultrasoft PP ?                                                          
   IUNSCR =        1    unscreen: 0-lin 1-nonlin 2-no                                               
   RPACOR =    1.200    partial core radius                                                         
   POMASS =   10.811; ZVAL   =    3.000    mass and valenz                                          
   RCORE  =    1.700    outmost cutoff radius                                                       
   RWIGS  =    1.710; RWIGS  =    0.905    wigner-seitz radius (au A)                               
   ENMAX  =  318.614; ENMIN  =  238.960 eV                                                          
   ICORE  =        2    local potential                                                             
   LCOR   =        T    correct aug charges                                                         
   LPAW   =        T    paw PP                                                                      
   EAUG   =  535.514                                                                                
   DEXC   =    0.000                                                                                
   RMAX   =    1.732    core radius for proj-oper                                                   
   RAUG   =    1.300    factor for augmentation sphere                                              
   RDEP   =    1.757    radius for radial grids                                                     
   RDEPT  =    1.436    core radius for aug-charge                                                  
                                                                                                    
   Atomic configuration                                                                             
    4 entries                                                                                       
     n  l   j            E        occ.                                                              
     1  0  0.50      -180.5896   2.0000                                                             
     2  0  0.50        -9.4431   2.0000                                                             
     2  1  0.50        -3.6068   1.0000                                                             
     3  2  1.50        -4.0817   0.0000                                                             
   Description                                                                                      
     l       E           TYP  RCUT    TYP  RCUT                                                     
     0     -9.4430752     23  1.500                                                                 
     0      0.8675899     23  1.500                                                                 
     1     -3.6067955     23  1.700                                                                 
     1      6.1086146     23  1.700                                                                 
     2     -4.0817478      7  1.700                                                                 
  local pseudopotential read in
  partial core-charges read in
  partial kinetic energy density read in
  atomic valenz-charges read in
  non local Contribution for L=            0  read in
    real space projection operators read in
  non local Contribution for L=            0  read in
    real space projection operators read in
  non local Contribution for L=            1  read in
    real space projection operators read in
  non local Contribution for L=            1  read in
    real space projection operators read in
    PAW grid and wavefunctions read in
 
   number of l-projection  operators is LMAX  =            4
   number of lm-projection operators is LMMAX =            8
 
 POTCAR:    PAW_PBE C 08Apr2002                   
   VRHFIN =C: s2p2                                                                                  
   LEXCH  = PE                                                                                      
   EATOM  =   147.1560 eV,   10.8157 Ry                                                             
                                                                                                    
   TITEL  = PAW_PBE C 08Apr2002                                                                     
   LULTRA =        F    use ultrasoft PP ?                                                          
   IUNSCR =        1    unscreen: 0-lin 1-nonlin 2-no                                               
   RPACOR =    1.200    partial core radius                                                         
   POMASS =   12.011; ZVAL   =    4.000    mass and valenz                                          
   RCORE  =    1.500    outmost cutoff radius                                                       
   RWIGS  =    1.630; RWIGS  =    0.863    wigner-seitz radius (au A)                               
   ENMAX  =  400.000; ENMIN  =  300.000 eV                                                          
   ICORE  =        2    local potential                                                             
   LCOR   =        T    correct aug charges                                                         
   LPAW   =        T    paw PP                                                                      
   EAUG   =  644.873                                                                                
   DEXC   =    0.000                                                                                
   RMAX   =    1.529    core radius for proj-oper                                                   
   RAUG   =    1.300    factor for augmentation sphere                                              
   RDEP   =    1.501    radius for radial grids                                                     
   RDEPT  =    1.300    core radius for aug-charge                                                  
                                                                                                    
   Atomic configuration                                                                             
    4 entries                                                                                       
     n  l   j            E        occ.                                                              
     1  0  0.50      -273.3789   2.0000                                                             
     2  0  0.50       -13.7508   2.0000                                                             
     2  1  0.50        -5.2854   2.0000                                                             
     3  2  1.50        -5.4423   0.0000                                                             
   Description                                                                                      
     l       E           TYP  RCUT    TYP  RCUT                                                     
     0    -13.7508458     23  1.200                                                                 
     0     -8.2022199     23  1.200                                                                 
     1     -5.2854383     23  1.500                                                                 
     1     34.0145650     23  1.500                                                                 
     2     -5.4423304      7  1.500                                                                 
  local pseudopotential read in
  partial core-charges read in
  partial kinetic energy density read in
  atomic valenz-charges read in
  non local Contribution for L=            0  read in
    real space projection operators read in
  non local Contribution for L=            0  read in
    real space projection operators read in
  non local Contribution for L=            1  read in
    real space projection operators read in
  non local Contribution for L=            1  read in
    real space projection operators read in
    PAW grid and wavefunctions read in
 
   number of l-projection  operators is LMAX  =            4
   number of lm-projection operators is LMMAX =            8
 
 Optimization of the real space projectors (new method)

 maximal supplied QI-value         = 22.11
 optimisation between [QCUT,QGAM] = [ 13.49, 26.97] = [ 50.94,203.75] Ry 
 Optimized for a Real-space Cutoff    1.14 Angstroem

   l    n(q)    QCUT    max X(q) W(low)/X(q) W(high)/X(q)  e(spline) 
   0      9    13.487    53.033    0.17E-03    0.11E-03    0.20E-06
   0      9    13.487    34.740    0.17E-03    0.11E-03    0.20E-06
   1      9    13.487    30.949    0.61E-04    0.25E-04    0.11E-06
   1      9    13.487    19.518    0.55E-04    0.23E-04    0.10E-06
 Optimization of the real space projectors (new method)

 maximal supplied QI-value         = 25.13
 optimisation between [QCUT,QGAM] = [ 13.32, 26.89] = [ 49.69,202.52] Ry 
 Optimized for a Real-space Cutoff    1.07 Angstroem

   l    n(q)    QCUT    max X(q) W(low)/X(q) W(high)/X(q)  e(spline) 
   0      9    13.321   115.676    0.24E-03    0.18E-03    0.16E-06
   0      9    13.321    87.132    0.24E-03    0.18E-03    0.16E-06
   1      8    13.321     4.429    0.20E-03    0.27E-03    0.12E-06
   1      8    13.321     2.733    0.16E-03    0.21E-03    0.12E-06
  PAW_PBE B 06Sep2000                   :
 energy of atom  1       EATOM=  -71.1703
 kinetic energy error for atom=    0.0004 (will be added to EATOM!!)
  PAW_PBE C 08Apr2002                   :
 energy of atom  2       EATOM= -147.1560
 kinetic energy error for atom=    0.0032 (will be added to EATOM!!)
 
 
 POSCAR: B96 C24
  positions in direct lattice
  No initial velocities read in
 exchange correlation table for  LEXCH =        8
   RHO(1)=    0.500       N(1)  =     2000
   RHO(2)=  100.500       N(2)  =     4000
 


--------------------------------------------------------------------------------------------------------


 ion  position               nearest neighbor table
   1  0.158  0.404  0.404-  42 1.67 105 1.68  53 1.72  35 1.74  61 1.80  68 1.94
   2  0.158  0.404  0.904-  41 1.67 106 1.68  54 1.72  36 1.74  62 1.80  67 1.94
   3  0.158  0.904  0.404-  44 1.67 107 1.68  55 1.72  33 1.74  63 1.80  66 1.94
   4  0.158  0.904  0.904-  43 1.67 108 1.68  56 1.72  34 1.74  64 1.80  65 1.94
   5  0.658  0.404  0.404-  46 1.67 109 1.68  49 1.72  39 1.74  57 1.80  72 1.94
   6  0.658  0.404  0.904-  45 1.67 110 1.68  50 1.72  40 1.74  58 1.80  71 1.94
   7  0.658  0.904  0.404-  48 1.67 111 1.68  51 1.72  37 1.74  59 1.80  70 1.94
   8  0.658  0.904  0.904-  47 1.67 112 1.68  52 1.72  38 1.74  60 1.80  69 1.94
   9  0.402  0.402  0.157- 105 1.54  98 1.63  45 1.75  27 1.75  79 1.87  58 1.90
  10  0.402  0.402  0.657- 106 1.54  97 1.63  46 1.75  28 1.75  80 1.87  57 1.90
  11  0.402  0.902  0.157- 107 1.54 100 1.63  47 1.75  25 1.75  77 1.87  60 1.90
  12  0.402  0.902  0.657- 108 1.54  99 1.63  48 1.75  26 1.75  78 1.87  59 1.90
  13  0.902  0.402  0.157- 109 1.54 102 1.63  41 1.75  31 1.75  75 1.87  62 1.90
  14  0.902  0.402  0.657- 110 1.54 101 1.63  42 1.75  32 1.75  76 1.87  61 1.90
  15  0.902  0.902  0.157- 111 1.54 104 1.63  43 1.75  29 1.75  73 1.87  64 1.90
  16  0.902  0.902  0.657- 112 1.54 103 1.63  44 1.75  30 1.75  74 1.87  63 1.90
  17  0.402  0.157  0.402- 105 1.51  26 1.68  37 1.75  99 1.76  86 1.79  51 1.94
  18  0.402  0.157  0.902- 106 1.51  25 1.68  38 1.75 100 1.76  85 1.79  52 1.94
  19  0.402  0.657  0.402- 107 1.51  28 1.68  39 1.75  97 1.76  88 1.79  49 1.94
  20  0.402  0.657  0.902- 108 1.51  27 1.68  40 1.75  98 1.76  87 1.79  50 1.94
  21  0.902  0.157  0.402- 109 1.51  30 1.68  33 1.75 103 1.76  82 1.79  55 1.94
  22  0.902  0.157  0.902- 110 1.51  29 1.68  34 1.75 104 1.76  81 1.79  56 1.94
  23  0.902  0.657  0.402- 111 1.51  32 1.68  35 1.75 101 1.76  84 1.79  53 1.94
  24  0.902  0.657  0.902- 112 1.51  31 1.68  36 1.75 102 1.76  83 1.79  54 1.94
  25  0.341  0.097  0.097- 113 1.66  18 1.68  77 1.71  11 1.75  85 1.79 100 1.88
  26  0.341  0.097  0.597- 114 1.66  17 1.68  78 1.71  12 1.75  86 1.79  99 1.88
  27  0.341  0.597  0.097- 115 1.66  20 1.68  79 1.71   9 1.75  87 1.79  98 1.88
  28  0.341  0.597  0.597- 116 1.66  19 1.68  80 1.71  10 1.75  88 1.79  97 1.88
  29  0.841  0.097  0.097- 117 1.66  22 1.68  73 1.71  15 1.75  81 1.79 104 1.88
  30  0.841  0.097  0.597- 118 1.66  21 1.68  74 1.71  16 1.75  82 1.79 103 1.88
  31  0.841  0.597  0.097- 119 1.66  24 1.68  75 1.71  13 1.75  83 1.79 102 1.88
  32  0.841  0.597  0.597- 120 1.66  23 1.68  76 1.71  14 1.75  84 1.79 101 1.88
  33  0.099  0.097  0.344- 113 1.54  66 1.68   3 1.74  21 1.75  55 1.88  82 1.90
  34  0.099  0.097  0.844- 114 1.54  65 1.68   4 1.74  22 1.75  56 1.88  81 1.90
  35  0.099  0.597  0.344- 115 1.54  68 1.68   1 1.74  23 1.75  53 1.88  84 1.90
  36  0.099  0.597  0.844- 116 1.54  67 1.68   2 1.74  24 1.75  54 1.88  83 1.90
  37  0.599  0.097  0.344- 117 1.54  70 1.68   7 1.74  17 1.75  51 1.88  86 1.90
  38  0.599  0.097  0.844- 118 1.54  69 1.68   8 1.74  18 1.75  52 1.88  85 1.90
  39  0.599  0.597  0.344- 119 1.54  72 1.68   5 1.74  19 1.75  49 1.88  88 1.90
  40  0.599  0.597  0.844- 120 1.54  71 1.68   6 1.74  20 1.75  50 1.88  87 1.90
  41  0.099  0.344  0.097- 113 1.50   2 1.67  13 1.75  62 1.80  67 1.82  75 1.95  89 2.16
  42  0.099  0.344  0.597- 114 1.50   1 1.67  14 1.75  61 1.80  68 1.82  76 1.95  90 2.16
  43  0.099  0.844  0.097- 115 1.50   4 1.67  15 1.75  64 1.80  65 1.82  73 1.95  91 2.16
  44  0.099  0.844  0.597- 116 1.50   3 1.67  16 1.75  63 1.80  66 1.82  74 1.95  92 2.16
  45  0.599  0.344  0.097- 117 1.50   6 1.67   9 1.75  58 1.80  71 1.82  79 1.95  93 2.16
  46  0.599  0.344  0.597- 118 1.50   5 1.67  10 1.75  57 1.80  72 1.82  80 1.95  94 2.16
  47  0.599  0.844  0.097- 119 1.50   8 1.67  11 1.75  60 1.80  69 1.82  77 1.95  95 2.16
  48  0.599  0.844  0.597- 120 1.50   7 1.67  12 1.75  59 1.80  70 1.82  78 1.95  96 2.16
  49  0.494  0.497  0.337-  57 1.66   5 1.72  79 1.73  97 1.78  39 1.88  19 1.94
  50  0.494  0.497  0.837-  58 1.66   6 1.72  80 1.73  98 1.78  40 1.88  20 1.94
  51  0.494  0.997  0.337-  59 1.66   7 1.72  77 1.73  99 1.78  37 1.88  17 1.94
  52  0.494  0.997  0.837-  60 1.66   8 1.72  78 1.73 100 1.78  38 1.88  18 1.94
  53  0.994  0.497  0.337-  61 1.66   1 1.72  75 1.73 101 1.78  35 1.88  23 1.94
  54  0.994  0.497  0.837-  62 1.66   2 1.72  76 1.73 102 1.78  36 1.88  24 1.94
  55  0.994  0.997  0.337-  63 1.66   3 1.72  73 1.73 103 1.78  33 1.88  21 1.94
  56  0.994  0.997  0.837-  64 1.66   4 1.72  74 1.73 104 1.78  34 1.88  22 1.94
  57  0.494  0.337  0.497-  49 1.66  97 1.78   5 1.80  46 1.80  86 1.84  10 1.90
  58  0.494  0.337  0.997-  50 1.66  98 1.78   6 1.80  45 1.80  85 1.84   9 1.90
  59  0.494  0.837  0.497-  51 1.66  99 1.78   7 1.80  48 1.80  88 1.84  12 1.90
  60  0.494  0.837  0.997-  52 1.66 100 1.78   8 1.80  47 1.80  87 1.84  11 1.90
  61  0.994  0.337  0.497-  53 1.66 101 1.78   1 1.80  42 1.80  82 1.84  14 1.90
  62  0.994  0.337  0.997-  54 1.66 102 1.78   2 1.80  41 1.80  81 1.84  13 1.90
  63  0.994  0.837  0.497-  55 1.66 103 1.78   3 1.80  44 1.80  84 1.84  16 1.90
  64  0.994  0.837  0.997-  56 1.66 104 1.78   4 1.80  43 1.80  83 1.84  15 1.90
  65  0.171  0.003  0.003- 100 1.66  34 1.68  43 1.82  81 1.84  73 1.84   4 1.94
  66  0.171  0.003  0.503-  99 1.66  33 1.68  44 1.82  82 1.84  74 1.84   3 1.94
  67  0.171  0.503  0.003-  98 1.66  36 1.68  41 1.82  83 1.84  75 1.84   2 1.94
  68  0.171  0.503  0.503-  97 1.66  35 1.68  42 1.82  84 1.84  76 1.84   1 1.94
  69  0.671  0.003  0.003- 104 1.66  38 1.68  47 1.82  85 1.84  77 1.84   8 1.94
  70  0.671  0.003  0.503- 103 1.66  37 1.68  48 1.82  86 1.84  78 1.84   7 1.94
  71  0.671  0.503  0.003- 102 1.66  40 1.68  45 1.82  87 1.84  79 1.84   6 1.94
  72  0.671  0.503  0.503- 101 1.66  39 1.68  46 1.82  88 1.84  80 1.84   5 1.94
  73  0.003  0.003  0.164-  81 1.67  29 1.71  55 1.73  65 1.84  15 1.87  43 1.95
  74  0.003  0.003  0.664-  82 1.67  30 1.71  56 1.73  66 1.84  16 1.87  44 1.95
  75  0.003  0.503  0.164-  83 1.67  31 1.71  53 1.73  67 1.84  13 1.87  41 1.95
  76  0.003  0.503  0.664-  84 1.67  32 1.71  54 1.73  68 1.84  14 1.87  42 1.95
  77  0.503  0.003  0.164-  85 1.67  25 1.71  51 1.73  69 1.84  11 1.87  47 1.95
  78  0.503  0.003  0.664-  86 1.67  26 1.71  52 1.73  70 1.84  12 1.87  48 1.95
  79  0.503  0.503  0.164-  87 1.67  27 1.71  49 1.73  71 1.84   9 1.87  45 1.95
  80  0.503  0.503  0.664-  88 1.67  28 1.71  50 1.73  72 1.84  10 1.87  46 1.95
  81  0.003  0.164  0.003-  73 1.67  29 1.79  22 1.79  65 1.84  62 1.84  34 1.90
  82  0.003  0.164  0.503-  74 1.67  30 1.79  21 1.79  66 1.84  61 1.84  33 1.90
  83  0.003  0.664  0.003-  75 1.67  31 1.79  24 1.79  67 1.84  64 1.84  36 1.90
  84  0.003  0.664  0.503-  76 1.67  32 1.79  23 1.79  68 1.84  63 1.84  35 1.90
  85  0.503  0.164  0.003-  77 1.67  25 1.79  18 1.79  69 1.84  58 1.84  38 1.90
  86  0.503  0.164  0.503-  78 1.67  26 1.79  17 1.79  70 1.84  57 1.84  37 1.90
  87  0.503  0.664  0.003-  79 1.67  27 1.79  20 1.79  71 1.84  60 1.84  40 1.90
  88  0.503  0.664  0.503-  80 1.67  28 1.79  19 1.79  72 1.84  59 1.84  39 1.90
  89  0.248  0.249  0.249- 113 1.50 105 1.52  41 2.16
  90  0.248  0.249  0.749- 114 1.50 106 1.52  42 2.16
  91  0.248  0.749  0.249- 115 1.50 107 1.52  43 2.16
  92  0.248  0.749  0.749- 116 1.50 108 1.52  44 2.16
  93  0.748  0.249  0.249- 117 1.50 109 1.52  45 2.16
  94  0.748  0.249  0.749- 118 1.50 110 1.52  46 2.16
  95  0.748  0.749  0.249- 119 1.50 111 1.52  47 2.16
  96  0.748  0.749  0.749- 120 1.50 112 1.52  48 2.16
  97  0.338  0.498  0.498-  10 1.63  68 1.66  19 1.76  49 1.78  57 1.78  28 1.88
  98  0.338  0.498  0.998-   9 1.63  67 1.66  20 1.76  50 1.78  58 1.78  27 1.88
  99  0.338  0.998  0.498-  12 1.63  66 1.66  17 1.76  51 1.78  59 1.78  26 1.88
 100  0.338  0.998  0.998-  11 1.63  65 1.66  18 1.76  52 1.78  60 1.78  25 1.88
 101  0.838  0.498  0.498-  14 1.63  72 1.66  23 1.76  53 1.78  61 1.78  32 1.88
 102  0.838  0.498  0.998-  13 1.63  71 1.66  24 1.76  54 1.78  62 1.78  31 1.88
 103  0.838  0.998  0.498-  16 1.63  70 1.66  21 1.76  55 1.78  63 1.78  30 1.88
 104  0.838  0.998  0.998-  15 1.63  69 1.66  22 1.76  56 1.78  64 1.78  29 1.88
 105  0.306  0.309  0.309-  17 1.51  89 1.52   9 1.54   1 1.68
 106  0.306  0.309  0.809-  18 1.51  90 1.52  10 1.54   2 1.68
 107  0.306  0.809  0.309-  19 1.51  91 1.52  11 1.54   3 1.68
 108  0.306  0.809  0.809-  20 1.51  92 1.52  12 1.54   4 1.68
 109  0.806  0.309  0.309-  21 1.51  93 1.52  13 1.54   5 1.68
 110  0.806  0.309  0.809-  22 1.51  94 1.52  14 1.54   6 1.68
 111  0.806  0.809  0.309-  23 1.51  95 1.52  15 1.54   7 1.68
 112  0.806  0.809  0.809-  24 1.51  96 1.52  16 1.54   8 1.68
 113  0.191  0.189  0.189-  89 1.50  41 1.50  33 1.54  25 1.66
 114  0.191  0.189  0.689-  90 1.50  42 1.50  34 1.54  26 1.66
 115  0.191  0.689  0.189-  91 1.50  43 1.50  35 1.54  27 1.66
 116  0.191  0.689  0.689-  92 1.50  44 1.50  36 1.54  28 1.66
 117  0.691  0.189  0.189-  93 1.50  45 1.50  37 1.54  29 1.66
 118  0.691  0.189  0.689-  94 1.50  46 1.50  38 1.54  30 1.66
 119  0.691  0.689  0.189-  95 1.50  47 1.50  39 1.54  31 1.66
 120  0.691  0.689  0.689-  96 1.50  48 1.50  40 1.54  32 1.66
 
  LATTYP: Found a triclinic cell.
 ALAT       =    10.3210610116
 B/A-ratio  =     1.4469923134
 C/A-ratio  =     1.0844376838
 COS(alpha) =     0.0026371815
 COS(beta)  =     0.4621924416
 COS(gamma) =     0.7349132314
  
  Lattice vectors:
  
 A1 = (  -2.7281910000,  -7.9255380000,   6.0222190000)
 A2 = ( -11.9672780000,  -8.7301320000,   1.8995320000)
 A3 = (   6.5623400000,  -9.0664290000,  -0.0931580000)


Analysis of symmetry for initial positions (statically):
=====================================================================
 Subroutine PRICEL returns following result:
 
  LATTYP: Found a triclinic cell.
 ALAT       =     5.1605305058
 B/A-ratio  =     1.4469923134
 C/A-ratio  =     1.0844376838
 COS(alpha) =     0.0026371815
 COS(beta)  =     0.4621924416
 COS(gamma) =     0.7349132314
  
  Lattice vectors:
  
 A1 = (  -1.3640955000,  -3.9627690000,   3.0111095000)
 A2 = (  -5.9836390000,  -4.3650660000,   0.9497660000)
 A3 = (   3.2811700000,  -4.5332145000,  -0.0465790000)
 
   8 primitive cells build up your supercell.
 

 Routine SETGRP: Setting up the symmetry group for a 
 triclinic supercell.


 Subroutine GETGRP returns: Found  1 space group operations
 (whereof  1 operations were pure point group operations)
 out of a pool of  2 trial point group operations.


The static configuration has the point symmetry C_1 .


Analysis of symmetry for dynamics (positions and initial velocities):
=====================================================================
 Subroutine PRICEL returns following result:
 
  LATTYP: Found a triclinic cell.
 ALAT       =     5.1605305058
 B/A-ratio  =     1.4469923134
 C/A-ratio  =     1.0844376838
 COS(alpha) =     0.0026371815
 COS(beta)  =     0.4621924416
 COS(gamma) =     0.7349132314
  
  Lattice vectors:
  
 A1 = (  -1.3640955000,  -3.9627690000,   3.0111095000)
 A2 = (  -5.9836390000,  -4.3650660000,   0.9497660000)
 A3 = (   3.2811700000,  -4.5332145000,  -0.0465790000)
 
   8 primitive cells build up your supercell.
 

 Routine SETGRP: Setting up the symmetry group for a 
 triclinic supercell.


 Subroutine GETGRP returns: Found  1 space group operations
 (whereof  1 operations were pure point group operations)
 out of a pool of  2 trial point group operations.


The dynamic configuration has the point symmetry C_1 .


 Subroutine INISYM returns: Found  1 space group operations
 (whereof  1 operations are pure point group operations),
 and found     8 'primitive' translations


----------------------------------------------------------------------------------------

                                     Primitive cell                                     

  volume of cell :     107.4081

  direct lattice vectors                    reciprocal lattice vectors
    -1.364095500 -3.962769000  3.011109500     0.041978353  0.026419170  0.385889504
    -5.983639000 -4.365066000  0.949766000    -0.128803994 -0.091393737 -0.178629578
     3.281170000 -4.533214500 -0.046579000     0.087330397 -0.155684972 -0.165326628

  length of vectors
     5.160530506  7.467247975  5.596273749     0.389064087  0.238436176  0.243304958

  position of ions in fractional coordinates (direct lattice)
     0.738394000  0.069122000  0.384968000
     0.236820000  0.077620000  0.880884000
     0.727056000  0.077620000  0.880884000
     0.262722000  0.930608000  0.613340000
     0.765916000  0.921506000  0.118906000
     0.272166000  0.921506000  0.118906000
     0.330884000  0.342712000  0.331606000
     0.652086000  0.342712000  0.331606000
     0.359290000  0.646610000  0.988200000
     0.669908000  0.658816000  0.665766000
     0.346694000  0.658816000  0.665766000
     0.990044000  0.507974000  0.003964000
     0.664240000  0.331616000  0.008288000
     0.468798000  0.150076000  0.762252000
     0.514988000  0.862682000  0.244660000

  ion indices of the primitive-cell ions
   primitive index   ion index
                 1           1
                 2           9
                 3          17
                 4          28
                 5          35
                 6          42
                 7          53
                 8          61
                 9          68
                10          75
                11          82
                12          89
                13          97
                14         105
                15         113

----------------------------------------------------------------------------------------

 
 -----------------------------------------------------------------------------
|                                                                             |
|           W    W    AA    RRRRR   N    N  II  N    N   GGGG   !!!           |
|           W    W   A  A   R    R  NN   N  II  NN   N  G    G  !!!           |
|           W    W  A    A  R    R  N N  N  II  N N  N  G       !!!           |
|           W WW W  AAAAAA  RRRRR   N  N N  II  N  N N  G  GGG   !            |
|           WW  WW  A    A  R   R   N   NN  II  N   NN  G    G                |
|           W    W  A    A  R    R  N    N  II  N    N   GGGG   !!!           |
|                                                                             |
|     The requested file  could not be found or opened for reading            |
|     k-point information. Automatic k-point generation is used as a          |
|     fallback, which may lead to unwanted results.                           |
|                                                                             |
 -----------------------------------------------------------------------------

 

Automatic generation of k-mesh.
 Grid dimensions derived from KSPACING:
 generate k-points for:    2    2    2

 Generating k-lattice:

  Cartesian coordinates                     Fractional coordinates (reciprocal lattice)
     0.054033598 -0.016072809  0.003325737     0.500000000  0.000000000  0.000000000
    -0.000126189  0.055164885 -0.010483325     0.000000000  0.500000000  0.000000000
    -0.021706410 -0.016243642  0.051814982    -0.000000000  0.000000000  0.500000000

  Length of vectors
     0.056471457  0.056152298  0.058479197

  Shift w.r.t. Gamma in fractional coordinates (k-lattice)
     0.000000000  0.000000000  0.000000000

 TETIRR: Found     24 inequivalent tetrahedra from       48
 
 Subroutine IBZKPT returns following result:
 ===========================================
 
 Found      8 irreducible k-points:
 
 Following reciprocal coordinates:
            Coordinates               Weight
  0.000000  0.000000  0.000000      1.000000
  0.500000  0.000000  0.000000      1.000000
  0.000000  0.500000  0.000000      1.000000
  0.500000  0.500000  0.000000      1.000000
  0.000000  0.000000  0.500000      1.000000
  0.500000  0.000000  0.500000      1.000000
  0.000000  0.500000  0.500000      1.000000
  0.500000  0.500000  0.500000      1.000000
 
 Following cartesian coordinates:
            Coordinates               Weight
  0.000000  0.000000  0.000000      1.000000
  0.054034 -0.016073  0.003326      1.000000
 -0.000126  0.055165 -0.010483      1.000000
  0.053907  0.039092 -0.007158      1.000000
 -0.021706 -0.016244  0.051815      1.000000
  0.032327 -0.032316  0.055141      1.000000
 -0.021833  0.038921  0.041332      1.000000
  0.032201  0.022848  0.044657      1.000000
 


--------------------------------------------------------------------------------------------------------




 Dimension of arrays:
   k-points           NKPTS =      8   k-points in BZ     NKDIM =      8   number of bands    NBANDS=    253
   number of dos      NEDOS =    301   number of ions     NIONS =    120
   non local maximal  LDIM  =      4   non local SUM 2l+1 LMDIM =      8
   total plane-waves  NPLWV = 777600
   max r-space proj   IRMAX =   5671   max aug-charges    IRDMAX=  14310
   dimension x,y,z NGX =    90 NGY =   96 NGZ =   90
   dimension x,y,z NGXF=   180 NGYF=  192 NGZF=  180
   support grid    NGXF=   180 NGYF=  192 NGZF=  180
   ions per type =              96  24
   NGX,Y,Z   is equivalent  to a cutoff of  14.74, 14.43, 14.36 a.u.
   NGXF,Y,Z  is equivalent  to a cutoff of  29.48, 28.85, 28.71 a.u.

 SYSTEM =  unknown system                          
 POSCAR =  B96 C24                                 

 Startparameter for this run:
   NWRITE =      2    write-flag & timer
   PREC   = accura    normal or accurate (medium, high low for compatibility)
   ISTART =      0    job   : 0-new  1-cont  2-samecut
   ICHARG =      2    charge: 1-file 2-atom 10-const
   ISPIN  =      1    spin polarized calculation?
   LNONCOLLINEAR =      F non collinear calculations
   LSORBIT =      F    spin-orbit coupling
   INIWAV =      1    electr: 0-lowe 1-rand  2-diag
   LASPH  =      F    aspherical Exc in radial PAW
   METAGGA=      F    non-selfconsistent MetaGGA calc.

 Electronic Relaxation 1
   ENCUT  =  700.0 eV  51.45 Ry    7.17 a.u.  21.89 23.86 22.48*2*pi/ulx,y,z
   ENINI  =  700.0     initial cutoff
   ENAUG  =  644.9 eV  augmentation charge cutoff
   NELM   =     60;   NELMIN=  2; NELMDL= -5     # of ELM steps 
   EDIFF  = 0.1E-05   stopping-criterion for ELM
   LREAL  =      T    real-space projection
   NLSPLINE    = F    spline interpolate recip. space projectors
   LCOMPAT=      F    compatible to vasp.4.4
   GGA_COMPAT  = T    GGA compatible to vasp.4.4-vasp.4.6
   LMAXPAW     = -100 max onsite density
   LMAXMIX     =    2 max onsite mixed and CHGCAR
   VOSKOWN=      0    Vosko Wilk Nusair interpolation
   ROPT   =   -0.00025  -0.00025
 Ionic relaxation
   EDIFFG = 0.1E-04   stopping-criterion for IOM
   NSW    =    300    number of steps for IOM
   NBLOCK =      1;   KBLOCK =    300    inner block; outer block 
   IBRION =      2    ionic relax: 0-MD 1-quasi-New 2-CG
   NFREE  =      1    steps in history (QN), initial steepest desc. (CG)
   ISIF   =      4    stress and relaxation
   IWAVPR =     11    prediction:  0-non 1-charg 2-wave 3-comb
   ISYM   =      2    0-nonsym 1-usesym 2-fastsym
   LCORR  =      T    Harris-Foulkes like correction to forces

   POTIM  = 0.5000    time-step for ionic-motion
   TEIN   =    0.0    initial temperature
   TEBEG  =    0.0;   TEEND  =   0.0 temperature during run
   SMASS  =  -3.00    Nose mass-parameter (am)
   estimated Nose-frequenzy (Omega)   =  0.10E-29 period in steps = 0.13E+47 mass=  -0.235E-26a.u.
   SCALEE = 1.0000    scale energy and forces
   NPACO  =    256;   APACO  = 16.0  distance and # of slots for P.C.
   PSTRESS=    0.0 pullay stress

  Mass of Ions in am
   POMASS =  10.81 12.01
  Ionic Valenz
   ZVAL   =   3.00  4.00
  Atomic Wigner-Seitz radii
   RWIGS  =  -1.00 -1.00
  virtual crystal weights 
   VCA    =   1.00  1.00
   NELECT =     384.0000    total number of electrons
   NUPDOWN=      -1.0000    fix difference up-down

 DOS related values:
   EMIN   =  10.00;   EMAX   =-10.00  energy-range for DOS
   EFERMI =   0.00
   ISMEAR =    -5;   SIGMA  =   0.05  broadening in eV -4-tet -1-fermi 0-gaus

 Electronic relaxation 2 (details)
   IALGO  =     68    algorithm
   LDIAG  =      T    sub-space diagonalisation (order eigenvalues)
   LSUBROT=      F    optimize rotation matrix (better conditioning)
   TURBO    =      0    0=normal 1=particle mesh
   IRESTART =      0    0=no restart 2=restart with 2 vectors
   NREBOOT  =      0    no. of reboots
   NMIN     =      0    reboot dimension
   EREF     =   0.00    reference energy to select bands
   IMIX   =      4    mixing-type and parameters
     AMIX     =   0.40;   BMIX     =  1.00
     AMIX_MAG =   1.60;   BMIX_MAG =  1.00
     AMIN     =   0.10
     WC   =   100.;   INIMIX=   1;  MIXPRE=   1;  MAXMIX= -45

 Intra band minimization:
   WEIMIN = 0.0010     energy-eigenvalue tresh-hold
   EBREAK =  0.99E-09  absolut break condition
   DEPER  =   0.30     relativ break condition  

   TIME   =   0.40     timestep for ELM

  volume/ion in A,a.u.               =       7.16        48.32
  Fermi-wavevector in a.u.,A,eV,Ry     =   1.251631  2.365239 21.314615  1.566580
  Thomas-Fermi vector in A             =   2.385569
 
 Write flags
   LWAVE        =      F    write WAVECAR
   LDOWNSAMPLE  =      F    k-point downsampling of WAVECAR
   LCHARG       =      T    write CHGCAR
   LVTOT        =      F    write LOCPOT, total local potential
   LVHAR        =      F    write LOCPOT, Hartree potential only
   LELF         =      F    write electronic localiz. function (ELF)
   LORBIT       =      0    0 simple, 1 ext, 2 COOP (PROOUT), +10 PAW based schemes


 Dipole corrections
   LMONO  =      F    monopole corrections only (constant potential shift)
   LDIPOL =      F    correct potential (dipole corrections)
   IDIPOL =      0    1-x, 2-y, 3-z, 4-all directions 
   EPSILON=  1.0000000 bulk dielectric constant

 Exchange correlation treatment:
   GGA     =    --    GGA type
   LEXCH   =     8    internal setting for exchange type
   VOSKOWN=      0    Vosko Wilk Nusair interpolation
   LHFCALC =     F    Hartree Fock is set to
   LHFONE  =     F    Hartree Fock one center treatment
   AEXX    =    0.0000 exact exchange contribution

 Linear response parameters
   LEPSILON=     F    determine dielectric tensor
   LRPA    =     F    only Hartree local field effects (RPA)
   LNABLA  =     F    use nabla operator in PAW spheres
   LVEL    =     F    velocity operator in full k-point grid
   LINTERFAST=   F  fast interpolation
   KINTER  =     0    interpolate to denser k-point grid
   CSHIFT  =0.1000    complex shift for real part using Kramers Kronig
   OMEGAMAX=  -1.0    maximum frequency
   DEG_THRESHOLD= 0.2000000E-02 threshold for treating states as degnerate
   RTIME   =   -0.100 relaxation time in fs
  (WPLASMAI=    0.000 imaginary part of plasma frequency in eV, 0.658/RTIME)
   DFIELD  = 0.0000000 0.0000000 0.0000000 field for delta impulse in time
 
 Orbital magnetization related:
   ORBITALMAG=     F  switch on orbital magnetization
   LCHIMAG   =     F  perturbation theory with respect to B field
   DQ        =  0.001000  dq finite difference perturbation B field
   LLRAUG    =     F  two centre corrections for induced B field



--------------------------------------------------------------------------------------------------------


 conjugate gradient relaxation of ions
 charge density and potential will be updated during run
 non-spin polarized calculation
 RMM-DIIS sequential band-by-band and
  variant of blocked Davidson during initial phase
 perform sub-space diagonalisation
    before iterative eigenvector-optimisation
 modified Broyden-mixing scheme, WC =      100.0
 initial mixing is a Kerker type mixing with AMIX =  0.4000 and BMIX =      1.0000
 Hartree-type preconditioning will be used
 using additional bands            61
 real space projection scheme for non local part
 use partial core corrections
 calculate Harris-corrections to forces 
   (improved forces if not selfconsistent)
 use gradient corrections 
 use of overlap-Matrix (Vanderbilt PP)
 Fermi weights with tetrahedron method with Bloechl corrections


--------------------------------------------------------------------------------------------------------


  energy-cutoff  :      700.00
  volume of cell :      859.26
      direct lattice vectors                 reciprocal lattice vectors
     9.239087000  0.804594000  4.122687000     0.108067196 -0.032145617  0.006651475
     2.676747000  9.871023000  4.215845000    -0.000252378  0.110329770 -0.020966649
    -0.051444000  1.945485000 10.238064000    -0.043412821 -0.032487284  0.103629963

  length of vectors
    10.149120563 11.062342366 10.421396876     0.112942913  0.112304595  0.116958394


 
 k-points in units of 2pi/SCALE and weight: read from INCAR                         
   0.00000000  0.00000000  0.00000000       0.125
   0.05403360 -0.01607281  0.00332574       0.125
  -0.00012619  0.05516488 -0.01048332       0.125
   0.05390741  0.03909208 -0.00715759       0.125
  -0.02170641 -0.01624364  0.05181498       0.125
   0.03232719 -0.03231645  0.05514072       0.125
  -0.02183260  0.03892124  0.04133166       0.125
   0.03220100  0.02284843  0.04465739       0.125
 
 k-points in reciprocal lattice and weights: read from INCAR                         
   0.00000000  0.00000000  0.00000000       0.125
   0.50000000  0.00000000  0.00000000       0.125
   0.00000000  0.50000000  0.00000000       0.125
   0.50000000  0.50000000  0.00000000       0.125
   0.00000000  0.00000000  0.50000000       0.125
   0.50000000  0.00000000  0.50000000       0.125
   0.00000000  0.50000000  0.50000000       0.125
   0.50000000  0.50000000  0.50000000       0.125
 
 position of ions in fractional coordinates (direct lattice) 
   0.15792300  0.40375800  0.40375800
   0.15792300  0.40375800  0.90375800
   0.15792300  0.90375800  0.40375800
   0.15792300  0.90375800  0.90375800
   0.65792300  0.40375800  0.40375800
   0.65792300  0.40375800  0.90375800
   0.65792300  0.90375800  0.40375800
   0.65792300  0.90375800  0.90375800
   0.40163200  0.40233800  0.15722000
   0.40163200  0.40233800  0.65722000
   0.40163200  0.90233800  0.15722000
   0.40163200  0.90233800  0.65722000
   0.90163200  0.40233800  0.15722000
   0.90163200  0.40233800  0.65722000
   0.90163200  0.90233800  0.15722000
   0.90163200  0.90233800  0.65722000
   0.40163200  0.15722000  0.40233800
   0.40163200  0.15722000  0.90233800
   0.40163200  0.65722000  0.40233800
   0.40163200  0.65722000  0.90233800
   0.90163200  0.15722000  0.40233800
   0.90163200  0.15722000  0.90233800
   0.90163200  0.65722000  0.40233800
   0.90163200  0.65722000  0.90233800
   0.34136600  0.09666500  0.09666500
   0.34136600  0.09666500  0.59666500
   0.34136600  0.59666500  0.09666500
   0.34136600  0.59666500  0.59666500
   0.84136600  0.09666500  0.09666500
   0.84136600  0.09666500  0.59666500
   0.84136600  0.59666500  0.09666500
   0.84136600  0.59666500  0.59666500
   0.09870000  0.09683600  0.34371100
   0.09870000  0.09683600  0.84371100
   0.09870000  0.59683600  0.34371100
   0.09870000  0.59683600  0.84371100
   0.59870000  0.09683600  0.34371100
   0.59870000  0.09683600  0.84371100
   0.59870000  0.59683600  0.34371100
   0.59870000  0.59683600  0.84371100
   0.09870000  0.34371100  0.09683600
   0.09870000  0.34371100  0.59683600
   0.09870000  0.84371100  0.09683600
   0.09870000  0.84371100  0.59683600
   0.59870000  0.34371100  0.09683600
   0.59870000  0.34371100  0.59683600
   0.59870000  0.84371100  0.09683600
   0.59870000  0.84371100  0.59683600
   0.49444700  0.49739900  0.33679800
   0.49444700  0.49739900  0.83679800
   0.49444700  0.99739900  0.33679800
   0.49444700  0.99739900  0.83679800
   0.99444700  0.49739900  0.33679800
   0.99444700  0.49739900  0.83679800
   0.99444700  0.99739900  0.33679800
   0.99444700  0.99739900  0.83679800
   0.49444700  0.33679800  0.49739900
   0.49444700  0.33679800  0.99739900
   0.49444700  0.83679800  0.49739900
   0.49444700  0.83679800  0.99739900
   0.99444700  0.33679800  0.49739900
   0.99444700  0.33679800  0.99739900
   0.99444700  0.83679800  0.49739900
   0.99444700  0.83679800  0.99739900
   0.17079500  0.00295000  0.00295000
   0.17079500  0.00295000  0.50295000
   0.17079500  0.50295000  0.00295000
   0.17079500  0.50295000  0.50295000
   0.67079500  0.00295000  0.00295000
   0.67079500  0.00295000  0.50295000
   0.67079500  0.50295000  0.00295000
   0.67079500  0.50295000  0.50295000
   0.00347500  0.00275500  0.16436200
   0.00347500  0.00275500  0.66436200
   0.00347500  0.50275500  0.16436200
   0.00347500  0.50275500  0.66436200
   0.50347500  0.00275500  0.16436200
   0.50347500  0.00275500  0.66436200
   0.50347500  0.50275500  0.16436200
   0.50347500  0.50275500  0.66436200
   0.00347500  0.16436200  0.00275500
   0.00347500  0.16436200  0.50275500
   0.00347500  0.66436200  0.00275500
   0.00347500  0.66436200  0.50275500
   0.50347500  0.16436200  0.00275500
   0.50347500  0.16436200  0.50275500
   0.50347500  0.66436200  0.00275500
   0.50347500  0.66436200  0.50275500
   0.24799500  0.24900900  0.24900900
   0.24799500  0.24900900  0.74900900
   0.24799500  0.74900900  0.24900900
   0.24799500  0.74900900  0.74900900
   0.74799500  0.24900900  0.24900900
   0.74799500  0.24900900  0.74900900
   0.74799500  0.74900900  0.24900900
   0.74799500  0.74900900  0.74900900
   0.33833600  0.49792800  0.49792800
   0.33833600  0.49792800  0.99792800
   0.33833600  0.99792800  0.49792800
   0.33833600  0.99792800  0.99792800
   0.83833600  0.49792800  0.49792800
   0.83833600  0.49792800  0.99792800
   0.83833600  0.99792800  0.49792800
   0.83833600  0.99792800  0.99792800
   0.30608800  0.30943700  0.30943700
   0.30608800  0.30943700  0.80943700
   0.30608800  0.80943700  0.30943700
   0.30608800  0.80943700  0.80943700
   0.80608800  0.30943700  0.30943700
   0.80608800  0.30943700  0.80943700
   0.80608800  0.80943700  0.30943700
   0.80608800  0.80943700  0.80943700
   0.19098900  0.18883500  0.18883500
   0.19098900  0.18883500  0.68883500
   0.19098900  0.68883500  0.18883500
   0.19098900  0.68883500  0.68883500
   0.69098900  0.18883500  0.18883500
   0.69098900  0.18883500  0.68883500
   0.69098900  0.68883500  0.18883500
   0.69098900  0.68883500  0.68883500
 
 position of ions in cartesian coordinates  (Angst):
   2.51905142  4.89807354  6.48694849
   2.49332942  5.87081604 11.60598049
   3.85742492  9.83358504  8.59487099
   3.83170292 10.80632754 13.71390299
   7.13859492  5.30037054  8.54829199
   7.11287292  6.27311304 13.66732399
   8.47696842 10.23588204 10.65621449
   8.45124642 11.20862454 15.77524649
   4.77958200  4.60050750  4.96162609
   4.75386000  5.57325000 10.08065809
   6.11795550  9.53601900  7.06954859
   6.09223350 10.50876150 12.18858059
   9.39912550  5.00280450  7.02296959
   9.37340350  5.97554700 12.14200159
  10.73749900  9.93831600  9.13089209
  10.71177700 10.91105850 14.24992409
   4.11085328  2.65781548  6.43778037
   4.08513128  3.63055798 11.55681237
   5.44922678  7.59332698  8.54570287
   5.42350478  8.56606948 13.66473487
   8.73039678  3.06011248  8.49912387
   8.70467478  4.03285498 13.61815587
  10.06877028  7.99562398 10.60704637
  10.04304828  8.96836648 15.72607837
   3.40768509  1.41690378  2.80453228
   3.38196309  2.38964628  7.92356428
   4.74605859  6.35241528  4.91245478
   4.72033659  7.32515778 10.03148678
   8.02722859  1.81920078  4.86587578
   8.00150659  2.79194328  9.98490778
   9.36560209  6.75471228  6.97379828
   9.33988009  7.72745478 12.09283028
   1.15342149  1.70396841  4.33408999
   1.12769949  2.67671091  9.45312199
   2.49179499  6.63947991  6.44201249
   2.46607299  7.61222241 11.56104449
   5.77296499  2.10626541  6.39543349
   5.74724299  3.07900791 11.51446549
   7.11133849  7.04177691  8.50335599
   7.08561649  8.01451941 13.62238799
   1.82694364  3.66058560  2.84735467
   1.80122164  4.63332810  7.96638667
   3.16531714  8.59609710  4.95527717
   3.13959514  9.56883960 10.07430917
   6.44648714  4.06288260  4.90869817
   6.42076514  5.03562510 10.02773017
   7.78486064  8.99839410  7.01662067
   7.75913864  9.97113660 12.13565267
   5.88232389  5.96290152  7.58356679
   5.85660189  6.93564402 12.70259879
   7.22069739 10.89841302  9.69148929
   7.19497539 11.87115552 14.81052129
  10.50186739  6.36519852  9.64491029
  10.47614539  7.33794102 14.76394229
  11.84024089 11.30071002 11.75283279
  11.81451889 12.27345252 16.87186479
   5.44417369  4.69005219  8.55074118
   5.41845169  5.66279469 13.66977318
   6.78254719  9.62556369 10.65866368
   6.75682519 10.59830619 15.77769568
  10.06371719  5.09234919 10.61208468
  10.03799519  6.06509169 15.73111668
  11.40209069 10.02786069 12.72000718
  11.37636869 11.00060319 17.83903918
   1.58573451  0.17227933  0.74677336
   1.56001251  1.14502183  5.86580536
   2.92410801  5.10779083  2.85469586
   2.89838601  6.08053333  7.97372786
   6.20527801  0.57457633  2.80811686
   6.17955601  1.54731883  7.92714886
   7.54365151  5.51008783  4.91603936
   7.51792951  6.48283033 10.03507136
   0.03102483  0.34975444  1.70868967
   0.00530283  1.32249694  6.82772167
   1.36939833  5.28526594  3.81661217
   1.34367633  6.25800844  8.93564417
   4.65056833  0.75205144  3.77003317
   4.62484633  1.72479394  8.88906517
   5.98894183  5.68756294  5.87795567
   5.96321983  6.66030544 10.99698767
   0.47191959  1.63057686  0.73545692
   0.44619759  2.60331936  5.85448892
   1.81029309  6.56608836  2.84337942
   1.78457109  7.53883086  7.96241142
   5.09146309  2.03287386  2.79680042
   5.06574109  3.00561636  7.91583242
   6.42983659  6.96838536  4.90472292
   6.40411459  7.94112786 10.02375492
   2.94497146  3.14195213  4.62155919
   2.91924946  4.11469463  9.74059119
   4.28334496  8.07746363  6.72948169
   4.25762296  9.05020613 11.84851369
   7.56451496  3.54424913  6.68290269
   7.53879296  4.51699163 11.80193469
   8.90288846  8.47976063  8.79082519
   8.87716646  9.45250313 13.90985719
   4.43312761  6.15599331  8.59185943
   4.40740561  7.12873581 13.71089143
   5.77150111 11.09150481 10.69978193
   5.74577911 12.06424731 15.81881393
   9.05267111  6.55829031 10.65320293
   9.02694911  7.53103281 15.77223493
  10.39104461 11.49380181 12.76112543
  10.36532261 12.46654431 17.88015743
   3.64033955  3.90274135  5.73447926
   3.61461755  4.87548385 10.85351126
   4.97871305  8.83825285  7.84240176
   4.95299105  9.81099535 12.96143376
   8.25988305  4.30503835  7.79582276
   8.23416105  5.27778085 12.91485476
   9.59825655  9.24054985  9.90374526
   9.57253455 10.21329235 15.02277726
   2.26031308  2.38503889  3.51679177
   2.23459108  3.35778139  8.63582377
   3.59868658  7.32055039  5.62471427
   3.57296458  8.29329289 10.74374627
   6.87985658  2.78733589  5.57813527
   6.85413458  3.76007839 10.69716727
   8.21823008  7.72284739  7.68605777
   8.19250808  8.69558989 12.80508977
 


--------------------------------------------------------------------------------------------------------


 k-point   1 :   0.0000 0.0000 0.0000  plane waves:   36161
 k-point   2 :   0.5000 0.0000 0.0000  plane waves:   36204
 k-point   3 :   0.0000 0.5000 0.0000  plane waves:   36148
 k-point   4 :   0.5000 0.5000 0.0000  plane waves:   36150
 k-point   5 :   0.0000 0.0000 0.5000  plane waves:   36112
 k-point   6 :   0.5000 0.0000 0.5000  plane waves:   36130
 k-point   7 :   0.0000 0.5000 0.5000  plane waves:   36128
 k-point   8 :   0.5000 0.5000 0.5000  plane waves:   36144

 maximum and minimum number of plane-waves per node :     36204    36112

 maximum number of plane-waves:     36204
 maximum index in each direction: 
   IXMAX=   21   IYMAX=   23   IZMAX=   22
   IXMIN=  -22   IYMIN=  -24   IZMIN=  -22


 serial   3D FFT for wavefunctions
 parallel 3D FFT for charge:
    minimum data exchange during FFTs selected (reduces bandwidth)


 total amount of memory used by VASP MPI-rank0  1886348. kBytes
=======================================================================

   base      :      30000. kBytes
   nonlr-proj:      56103. kBytes
   fftplans  :     213988. kBytes
   grid      :     382371. kBytes
   one-center:        368. kBytes
   wavefun   :    1203518. kBytes
 
     INWAV:  cpu time    0.0003: real time    0.0003
 Broyden mixing: mesh for mixing (old mesh)
   NGX = 43   NGY = 47   NGZ = 45
  (NGX  =180   NGY  =192   NGZ  =180)
  gives a total of  90945 points

 initial charge density was supplied:
 charge density of overlapping atoms calculated
 number of electron     384.0000000 magnetization 
 keeping initial charge density in first step


--------------------------------------------------------------------------------------------------------


 Maximum index for non-local projection operator          5467
 Maximum index for augmentation-charges         13721 (set IRDMAX)


--------------------------------------------------------------------------------------------------------


 First call to EWALD:  gamma=   0.186
 Maximum number of real-space cells 3x 3x 3
 Maximum number of reciprocal cells 3x 3x 3

    FEWALD:  cpu time    0.0778: real time    0.0778


--------------------------------------- Iteration      1(   1)  ---------------------------------------


    POTLOK:  cpu time    0.1508: real time    0.1549
    SETDIJ:  cpu time    0.1316: real time    0.1315
     EDDAV:  cpu time    6.9093: real time    6.9235
 BZINTS: Fermi energy:   17.599133;  384.000000 electrons
         Band energy: 0.164417E+04;  BLOECHL correction:   -0.002815
       DOS:  cpu time    0.0242: real time    0.0242
    --------------------------------------------
      LOOP:  cpu time    7.2159: real time    7.2341

 eigenvalue-minimisations  :  4048
 total energy-change (2. order) : 0.1552289E+04  (-0.2199600E+05)
 number of electron     384.0000000 magnetization 
 augmentation part      384.0000000 magnetization 

 Free energy of the ion-electron system (eV)
  ---------------------------------------------------
  alpha Z        PSCENC =      1204.07652892
  Ewald energy   TEWEN  =    -11641.32042334
  -Hartree energ DENC   =     -1107.15467597
  -exchange      EXHF   =         0.00000000
  -V(xc)+E(xc)   XCENC  =      1020.09802499
  PAW double counting   =      6780.51620165    -6712.07122612
  entropy T*S    EENTRO =         0.00000000
  eigenvalues    EBANDS =      1644.16782669
  atomic energy  EATOM  =     10363.97701633
  Solvation  Ediel_sol  =         0.00000000
  ---------------------------------------------------
  free energy    TOTEN  =      1552.28927315 eV

  energy without entropy =     1552.28927315  energy(sigma->0) =     1552.28927315


--------------------------------------------------------------------------------------------------------




--------------------------------------- Iteration      1(   2)  ---------------------------------------


     EDDAV:  cpu time    7.9252: real time    7.9234
 BZINTS: Fermi energy:    7.629444;  384.000000 electrons
         Band energy:-0.665827E+03;  BLOECHL correction:   -0.000000
       DOS:  cpu time    0.0222: real time    0.0221
    --------------------------------------------
      LOOP:  cpu time    7.9473: real time    7.9455

 eigenvalue-minimisations  :  4912
 total energy-change (2. order) :-0.2309995E+04  (-0.2166172E+04)
 number of electron     384.0000000 magnetization 
 augmentation part      384.0000000 magnetization 

 Free energy of the ion-electron system (eV)
  ---------------------------------------------------
  alpha Z        PSCENC =      1204.07652892
  Ewald energy   TEWEN  =    -11641.32042334
  -Hartree energ DENC   =     -1107.15467597
  -exchange      EXHF   =         0.00000000
  -V(xc)+E(xc)   XCENC  =      1020.09802499
  PAW double counting   =      6780.51620165    -6712.07122612
  entropy T*S    EENTRO =         0.00000000
  eigenvalues    EBANDS =      -665.82704111
  atomic energy  EATOM  =     10363.97701633
  Solvation  Ediel_sol  =         0.00000000
  ---------------------------------------------------
  free energy    TOTEN  =      -757.70559464 eV

  energy without entropy =     -757.70559464  energy(sigma->0) =     -757.70559464


--------------------------------------------------------------------------------------------------------




--------------------------------------- Iteration      1(   3)  ---------------------------------------


     EDDAV:  cpu time    7.9084: real time    7.9320
 BZINTS: Fermi energy:    6.818610;  384.000000 electrons
         Band energy:-0.818147E+03;  BLOECHL correction:    0.000000
       DOS:  cpu time    0.0236: real time    0.0236
    --------------------------------------------
      LOOP:  cpu time    7.9320: real time    7.9556

 eigenvalue-minimisations  :  4896
 total energy-change (2. order) :-0.1523199E+03  (-0.1496000E+03)
 number of electron     384.0000000 magnetization 
 augmentation part      384.0000000 magnetization 

 Free energy of the ion-electron system (eV)
  ---------------------------------------------------
  alpha Z        PSCENC =      1204.07652892
  Ewald energy   TEWEN  =    -11641.32042334
  -Hartree energ DENC   =     -1107.15467597
  -exchange      EXHF   =         0.00000000
  -V(xc)+E(xc)   XCENC  =      1020.09802499
  PAW double counting   =      6780.51620165    -6712.07122612
  entropy T*S    EENTRO =         0.00000000
  eigenvalues    EBANDS =      -818.14698236
  atomic energy  EATOM  =     10363.97701633
  Solvation  Ediel_sol  =         0.00000000
  ---------------------------------------------------
  free energy    TOTEN  =      -910.02553590 eV

  energy without entropy =     -910.02553590  energy(sigma->0) =     -910.02553590


--------------------------------------------------------------------------------------------------------




--------------------------------------- Iteration      1(   4)  ---------------------------------------


     EDDAV:  cpu time    7.9064: real time    7.9331
 BZINTS: Fermi energy:    6.772447;  384.000000 electrons
         Band energy:-0.822010E+03;  BLOECHL correction:   -0.000000
       DOS:  cpu time    0.0235: real time    0.0235
    --------------------------------------------
      LOOP:  cpu time    7.9300: real time    7.9566

 eigenvalue-minimisations  :  4872
 total energy-change (2. order) :-0.3863099E+01  (-0.3835637E+01)
 number of electron     384.0000000 magnetization 
 augmentation part      384.0000000 magnetization 

 Free energy of the ion-electron system (eV)
  ---------------------------------------------------
  alpha Z        PSCENC =      1204.07652892
  Ewald energy   TEWEN  =    -11641.32042334
  -Hartree energ DENC   =     -1107.15467597
  -exchange      EXHF   =         0.00000000
  -V(xc)+E(xc)   XCENC  =      1020.09802499
  PAW double counting   =      6780.51620165    -6712.07122612
  entropy T*S    EENTRO =         0.00000000
  eigenvalues    EBANDS =      -822.01008149
  atomic energy  EATOM  =     10363.97701633
  Solvation  Ediel_sol  =         0.00000000
  ---------------------------------------------------
  free energy    TOTEN  =      -913.88863502 eV

  energy without entropy =     -913.88863502  energy(sigma->0) =     -913.88863502


--------------------------------------------------------------------------------------------------------




--------------------------------------- Iteration      1(   5)  ---------------------------------------


     EDDAV:  cpu time    7.8263: real time    7.8632
 BZINTS: Fermi energy:    6.771784;  384.000000 electrons
         Band energy:-0.822126E+03;  BLOECHL correction:   -0.000000
       DOS:  cpu time    0.0235: real time    0.0235
    CHARGE:  cpu time    1.6857: real time    1.6849
    MIXING:  cpu time    0.0623: real time    0.0622
    --------------------------------------------
      LOOP:  cpu time    9.5978: real time    9.6339

 eigenvalue-minimisations  :  4832
 total energy-change (2. order) :-0.1155280E+00  (-0.1152672E+00)
 number of electron     383.9999999 magnetization 
 augmentation part        2.0184171 magnetization 

 Broyden mixing:
  rms(total) = 0.42119E+01    rms(broyden)= 0.42119E+01
  rms(prec ) = 0.59128E+01
  weight for this iteration     100.00

 Free energy of the ion-electron system (eV)
  ---------------------------------------------------
  alpha Z        PSCENC =      1204.07652892
  Ewald energy   TEWEN  =    -11641.32042334
  -Hartree energ DENC   =     -1107.15467597
  -exchange      EXHF   =         0.00000000
  -V(xc)+E(xc)   XCENC  =      1020.09802499
  PAW double counting   =      6780.51620165    -6712.07122612
  entropy T*S    EENTRO =         0.00000000
  eigenvalues    EBANDS =      -822.12560946
  atomic energy  EATOM  =     10363.97701633
  Solvation  Ediel_sol  =         0.00000000
  ---------------------------------------------------
  free energy    TOTEN  =      -914.00416300 eV

  energy without entropy =     -914.00416300  energy(sigma->0) =     -914.00416300


--------------------------------------------------------------------------------------------------------




--------------------------------------- Iteration      1(   6)  ---------------------------------------


    POTLOK:  cpu time    0.1369: real time    0.1370
    SETDIJ:  cpu time    0.1333: real time    0.1332
    EDDIAG:  cpu time    1.4924: real time    1.4921
  RMM-DIIS:  cpu time    6.1977: real time    6.1390
    ORTHCH:  cpu time    0.0393: real time    0.0393
 BZINTS: Fermi energy:    6.732433;  384.000000 electrons
         Band energy:-0.536728E+03;  BLOECHL correction:   -0.000000
       DOS:  cpu time    0.0239: real time    0.0239
    CHARGE:  cpu time    1.6484: real time    1.6607
    MIXING:  cpu time    0.0709: real time    0.0708
    --------------------------------------------
      LOOP:  cpu time    9.7429: real time    9.6961

 eigenvalue-minimisations  :  4048
 total energy-change (2. order) : 0.5279724E+02  (-0.8180941E+01)
 number of electron     383.9999999 magnetization 
 augmentation part        1.6646758 magnetization 

 Broyden mixing:
  rms(total) = 0.22027E+01    rms(broyden)= 0.22027E+01
  rms(prec ) = 0.28335E+01
  weight for this iteration     100.00

 eigenvalues of (default mixing * dielectric matrix)
  average eigenvalue GAMMA=   1.8238
  1.8238

 Free energy of the ion-electron system (eV)
  ---------------------------------------------------
  alpha Z        PSCENC =      1204.07652892
  Ewald energy   TEWEN  =    -11641.32042334
  -Hartree energ DENC   =     -1349.70194820
  -exchange      EXHF   =         0.00000000
  -V(xc)+E(xc)   XCENC  =      1036.21715632
  PAW double counting   =     15327.10732453   -15264.83491831
  entropy T*S    EENTRO =         0.00000000
  eigenvalues    EBANDS =      -536.72766131
  atomic energy  EATOM  =     10363.97701633
  Solvation  Ediel_sol  =         0.00000000
  ---------------------------------------------------
  free energy    TOTEN  =      -861.20692504 eV

  energy without entropy =     -861.20692504  energy(sigma->0) =     -861.20692504


--------------------------------------------------------------------------------------------------------




--------------------------------------- Iteration      1(   7)  ---------------------------------------


    POTLOK:  cpu time    0.1404: real time    0.1404
    SETDIJ:  cpu time    0.1265: real time    0.1264
    EDDIAG:  cpu time    1.4868: real time    1.4864
  RMM-DIIS:  cpu time    6.2040: real time    6.1398
    ORTHCH:  cpu time    0.0393: real time    0.0393
 BZINTS: Fermi energy:    6.784986;  384.000000 electrons
         Band energy:-0.337324E+03;  BLOECHL correction:   -0.000000
       DOS:  cpu time    0.0243: real time    0.0243
    CHARGE:  cpu time    1.6497: real time    1.6490
    MIXING:  cpu time    0.0643: real time    0.0643
    --------------------------------------------
      LOOP:  cpu time    9.7353: real time    9.6699

 eigenvalue-minimisations  :  4048
 total energy-change (2. order) : 0.7431451E+01  (-0.6125148E+01)
 number of electron     383.9999999 magnetization 
 augmentation part        1.2937102 magnetization 

 Broyden mixing:
  rms(total) = 0.88607E+00    rms(broyden)= 0.88605E+00
  rms(prec ) = 0.10849E+01
  weight for this iteration     100.00

 eigenvalues of (default mixing * dielectric matrix)
  average eigenvalue GAMMA=   2.1679
  2.1679  2.1679

 Free energy of the ion-electron system (eV)
  ---------------------------------------------------
  alpha Z        PSCENC =      1204.07652892
  Ewald energy   TEWEN  =    -11641.32042334
  -Hartree energ DENC   =     -1551.65785264
  -exchange      EXHF   =         0.00000000
  -V(xc)+E(xc)   XCENC  =      1050.80461370
  PAW double counting   =     28473.07218089   -28415.40385544
  entropy T*S    EENTRO =         0.00000000
  eigenvalues    EBANDS =      -337.32368248
  atomic energy  EATOM  =     10363.97701633
  Solvation  Ediel_sol  =         0.00000000
  ---------------------------------------------------
  free energy    TOTEN  =      -853.77547404 eV

  energy without entropy =     -853.77547404  energy(sigma->0) =     -853.77547404


--------------------------------------------------------------------------------------------------------




--------------------------------------- Iteration      1(   8)  ---------------------------------------


    POTLOK:  cpu time    0.1308: real time    0.1308
    SETDIJ:  cpu time    0.1280: real time    0.1279
    EDDIAG:  cpu time    1.4883: real time    1.4879
  RMM-DIIS:  cpu time    6.1732: real time    6.1158
    ORTHCH:  cpu time    0.0396: real time    0.0395
 BZINTS: Fermi energy:    7.035142;  384.000000 electrons
         Band energy:-0.358089E+03;  BLOECHL correction:   -0.000000
       DOS:  cpu time    0.0240: real time    0.0240
    CHARGE:  cpu time    1.6539: real time    1.6532
    MIXING:  cpu time    0.0643: real time    0.0643
    --------------------------------------------
      LOOP:  cpu time    9.7021: real time    9.6434

 eigenvalue-minimisations  :  4048
 total energy-change (2. order) : 0.2013154E+00  (-0.1206219E+01)
 number of electron     383.9999999 magnetization 
 augmentation part        1.3318580 magnetization 

 Broyden mixing:
  rms(total) = 0.39073E+00    rms(broyden)= 0.39073E+00
  rms(prec ) = 0.64499E+00
  weight for this iteration     100.00

 eigenvalues of (default mixing * dielectric matrix)
  average eigenvalue GAMMA=   1.7298
  2.5549  1.3173  1.3173

 Free energy of the ion-electron system (eV)
  ---------------------------------------------------
  alpha Z        PSCENC =      1204.07652892
  Ewald energy   TEWEN  =    -11641.32042334
  -Hartree energ DENC   =     -1530.90567461
  -exchange      EXHF   =         0.00000000
  -V(xc)+E(xc)   XCENC  =      1050.71777732
  PAW double counting   =     35334.78973231   -35276.82036731
  entropy T*S    EENTRO =         0.00000000
  eigenvalues    EBANDS =      -358.08874821
  atomic energy  EATOM  =     10363.97701633
  Solvation  Ediel_sol  =         0.00000000
  ---------------------------------------------------
  free energy    TOTEN  =      -853.57415860 eV

  energy without entropy =     -853.57415860  energy(sigma->0) =     -853.57415860


--------------------------------------------------------------------------------------------------------




--------------------------------------- Iteration      1(   9)  ---------------------------------------


    POTLOK:  cpu time    0.1304: real time    0.1304
    SETDIJ:  cpu time    0.1341: real time    0.1340
    EDDIAG:  cpu time    1.4864: real time    1.4859
  RMM-DIIS:  cpu time    6.2052: real time    6.1455
    ORTHCH:  cpu time    0.0393: real time    0.0393
 BZINTS: Fermi energy:    6.953566;  384.000000 electrons
         Band energy:-0.307729E+03;  BLOECHL correction:   -0.000000
       DOS:  cpu time    0.0241: real time    0.0241
    CHARGE:  cpu time    1.6424: real time    1.6417
    MIXING:  cpu time    0.0679: real time    0.0679
    --------------------------------------------
      LOOP:  cpu time    9.7298: real time    9.6689

 eigenvalue-minimisations  :  4048
 total energy-change (2. order) : 0.8572880E+00  (-0.3833812E+00)
 number of electron     383.9999999 magnetization 
 augmentation part        1.2809863 magnetization 

 Broyden mixing:
  rms(total) = 0.98807E-01    rms(broyden)= 0.98804E-01
  rms(prec ) = 0.14735E+00
  weight for this iteration     100.00

 eigenvalues of (default mixing * dielectric matrix)
  average eigenvalue GAMMA=   1.5752
  2.4625  0.9435  1.4475  1.4475

 Free energy of the ion-electron system (eV)
  ---------------------------------------------------
  alpha Z        PSCENC =      1204.07652892
  Ewald energy   TEWEN  =    -11641.32042334
  -Hartree energ DENC   =     -1582.98628429
  -exchange      EXHF   =         0.00000000
  -V(xc)+E(xc)   XCENC  =      1054.13923489
  PAW double counting   =     36698.31011119   -36641.18429840
  entropy T*S    EENTRO =         0.00000000
  eigenvalues    EBANDS =      -307.72875589
  atomic energy  EATOM  =     10363.97701633
  Solvation  Ediel_sol  =         0.00000000
  ---------------------------------------------------
  free energy    TOTEN  =      -852.71687059 eV

  energy without entropy =     -852.71687059  energy(sigma->0) =     -852.71687059


--------------------------------------------------------------------------------------------------------




--------------------------------------- Iteration      1(  10)  ---------------------------------------


    POTLOK:  cpu time    0.1319: real time    0.1322
    SETDIJ:  cpu time    0.1266: real time    0.1266
    EDDIAG:  cpu time    1.4865: real time    1.4861
  RMM-DIIS:  cpu time    6.4300: real time    6.3791
    ORTHCH:  cpu time    0.0393: real time    0.0393
 BZINTS: Fermi energy:    6.963624;  384.000000 electrons
         Band energy:-0.312703E+03;  BLOECHL correction:   -0.000000
       DOS:  cpu time    0.0244: real time    0.0244
    CHARGE:  cpu time    1.6627: real time    1.6621
    MIXING:  cpu time    0.0658: real time    0.0657
    --------------------------------------------
      LOOP:  cpu time    9.9673: real time    9.9155

 eigenvalue-minimisations  :  4187
 total energy-change (2. order) :-0.1546472E-01  (-0.4904669E-01)
 number of electron     383.9999999 magnetization 
 augmentation part        1.2596910 magnetization 

 Broyden mixing:
  rms(total) = 0.80885E-01    rms(broyden)= 0.80884E-01
  rms(prec ) = 0.11762E+00
  weight for this iteration     100.00

 eigenvalues of (default mixing * dielectric matrix)
  average eigenvalue GAMMA=   1.5837
  2.5220  2.1332  1.0183  1.0183  1.2264

 Free energy of the ion-electron system (eV)
  ---------------------------------------------------
  alpha Z        PSCENC =      1204.07652892
  Ewald energy   TEWEN  =    -11641.32042334
  -Hartree energ DENC   =     -1577.93116435
  -exchange      EXHF   =         0.00000000
  -V(xc)+E(xc)   XCENC  =      1053.85414513
  PAW double counting   =     36603.57955367   -36546.26499257
  entropy T*S    EENTRO =         0.00000000
  eigenvalues    EBANDS =      -312.70299911
  atomic energy  EATOM  =     10363.97701633
  Solvation  Ediel_sol  =         0.00000000
  ---------------------------------------------------
  free energy    TOTEN  =      -852.73233530 eV

  energy without entropy =     -852.73233530  energy(sigma->0) =     -852.73233530


--------------------------------------------------------------------------------------------------------




--------------------------------------- Iteration      1(  11)  ---------------------------------------


    POTLOK:  cpu time    0.1377: real time    0.1378
    SETDIJ:  cpu time    0.1276: real time    0.1275
    EDDIAG:  cpu time    1.4872: real time    1.4998
  RMM-DIIS:  cpu time    6.1604: real time    6.1236
    ORTHCH:  cpu time    0.0393: real time    0.0393
 BZINTS: Fermi energy:    6.980769;  384.000000 electrons
         Band energy:-0.317045E+03;  BLOECHL correction:   -0.000000
       DOS:  cpu time    0.0246: real time    0.0246
    CHARGE:  cpu time    1.6420: real time    1.6456
    MIXING:  cpu time    0.0813: real time    0.0803
    --------------------------------------------
      LOOP:  cpu time    9.7001: real time    9.6785

 eigenvalue-minimisations  :  4048
 total energy-change (2. order) : 0.2108489E-01  (-0.7336735E-02)
 number of electron     383.9999999 magnetization 
 augmentation part        1.2598958 magnetization 

 Broyden mixing:
  rms(total) = 0.16423E-01    rms(broyden)= 0.16423E-01
  rms(prec ) = 0.20972E-01
  weight for this iteration     100.00

 eigenvalues of (default mixing * dielectric matrix)
  average eigenvalue GAMMA=   1.6136
  2.6360  2.6360  1.2632  1.2632  0.9417  0.9417

 Free energy of the ion-electron system (eV)
  ---------------------------------------------------
  alpha Z        PSCENC =      1204.07652892
  Ewald energy   TEWEN  =    -11641.32042334
  -Hartree energ DENC   =     -1573.53890383
  -exchange      EXHF   =         0.00000000
  -V(xc)+E(xc)   XCENC  =      1053.65073230
  PAW double counting   =     36748.50544562   -36691.01699445
  entropy T*S    EENTRO =         0.00000000
  eigenvalues    EBANDS =      -317.04465197
  atomic energy  EATOM  =     10363.97701633
  Solvation  Ediel_sol  =         0.00000000
  ---------------------------------------------------
  free energy    TOTEN  =      -852.71125041 eV

  energy without entropy =     -852.71125041  energy(sigma->0) =     -852.71125041


--------------------------------------------------------------------------------------------------------




--------------------------------------- Iteration      1(  12)  ---------------------------------------


    POTLOK:  cpu time    0.1304: real time    0.1305
    SETDIJ:  cpu time    0.1271: real time    0.1270
    EDDIAG:  cpu time    1.4894: real time    1.4890
  RMM-DIIS:  cpu time    6.2842: real time    6.2137
    ORTHCH:  cpu time    0.0397: real time    0.0398
 BZINTS: Fermi energy:    6.982886;  384.000000 electrons
         Band energy:-0.318657E+03;  BLOECHL correction:   -0.000000
       DOS:  cpu time    0.0243: real time    0.0243
    CHARGE:  cpu time    1.6556: real time    1.6550
    MIXING:  cpu time    0.0680: real time    0.0679
    --------------------------------------------
      LOOP:  cpu time    9.8187: real time    9.7471

 eigenvalue-minimisations  :  4085
 total energy-change (2. order) :-0.1790336E-02  (-0.1722479E-02)
 number of electron     383.9999999 magnetization 
 augmentation part        1.2613679 magnetization 

 Broyden mixing:
  rms(total) = 0.11821E-01    rms(broyden)= 0.11821E-01
  rms(prec ) = 0.17476E-01
  weight for this iteration     100.00

 eigenvalues of (default mixing * dielectric matrix)
  average eigenvalue GAMMA=   1.6008
  2.6909  2.6909  1.4430  1.4430  0.9366  1.0007  1.0007

 Free energy of the ion-electron system (eV)
  ---------------------------------------------------
  alpha Z        PSCENC =      1204.07652892
  Ewald energy   TEWEN  =    -11641.32042334
  -Hartree energ DENC   =     -1571.90404142
  -exchange      EXHF   =         0.00000000
  -V(xc)+E(xc)   XCENC  =      1053.55638767
  PAW double counting   =     36675.09707610   -36617.53890211
  entropy T*S    EENTRO =         0.00000000
  eigenvalues    EBANDS =      -318.65668290
  atomic energy  EATOM  =     10363.97701633
  Solvation  Ediel_sol  =         0.00000000
  ---------------------------------------------------
  free energy    TOTEN  =      -852.71304075 eV

  energy without entropy =     -852.71304075  energy(sigma->0) =     -852.71304075


--------------------------------------------------------------------------------------------------------




--------------------------------------- Iteration      1(  13)  ---------------------------------------


    POTLOK:  cpu time    0.1302: real time    0.1303
    SETDIJ:  cpu time    0.1345: real time    0.1344
    EDDIAG:  cpu time    1.4875: real time    1.4873
  RMM-DIIS:  cpu time    6.4256: real time    6.3492
    ORTHCH:  cpu time    0.0392: real time    0.0392
 BZINTS: Fermi energy:    6.981396;  384.000000 electrons
         Band energy:-0.317742E+03;  BLOECHL correction:    0.000000
       DOS:  cpu time    0.0241: real time    0.0241
    CHARGE:  cpu time    1.6577: real time    1.6570
    MIXING:  cpu time    0.0725: real time    0.0725
    --------------------------------------------
      LOOP:  cpu time    9.9713: real time    9.8940

 eigenvalue-minimisations  :  4184
 total energy-change (2. order) : 0.2746235E-03  (-0.3745912E-03)
 number of electron     383.9999999 magnetization 
 augmentation part        1.2601099 magnetization 

 Broyden mixing:
  rms(total) = 0.39632E-02    rms(broyden)= 0.39632E-02
  rms(prec ) = 0.50660E-02
  weight for this iteration     100.00

 eigenvalues of (default mixing * dielectric matrix)
  average eigenvalue GAMMA=   1.6500
  2.7597  2.7597  2.1147  1.4669  1.0549  1.0549  1.0557  0.9332

 Free energy of the ion-electron system (eV)
  ---------------------------------------------------
  alpha Z        PSCENC =      1204.07652892
  Ewald energy   TEWEN  =    -11641.32042334
  -Hartree energ DENC   =     -1572.87048193
  -exchange      EXHF   =         0.00000000
  -V(xc)+E(xc)   XCENC  =      1053.62223072
  PAW double counting   =     36688.34241954   -36630.79761193
  entropy T*S    EENTRO =         0.00000000
  eigenvalues    EBANDS =      -317.74244444
  atomic energy  EATOM  =     10363.97701633
  Solvation  Ediel_sol  =         0.00000000
  ---------------------------------------------------
  free energy    TOTEN  =      -852.71276613 eV

  energy without entropy =     -852.71276613  energy(sigma->0) =     -852.71276613


--------------------------------------------------------------------------------------------------------




--------------------------------------- Iteration      1(  14)  ---------------------------------------


    POTLOK:  cpu time    0.1370: real time    0.1370
    SETDIJ:  cpu time    0.1267: real time    0.1266
    EDDIAG:  cpu time    1.4807: real time    1.4932
  RMM-DIIS:  cpu time    6.3432: real time    6.2829
    ORTHCH:  cpu time    0.0393: real time    0.0393
 BZINTS: Fermi energy:    6.981572;  384.000000 electrons
         Band energy:-0.317568E+03;  BLOECHL correction:   -0.000000
       DOS:  cpu time    0.0246: real time    0.0258
    CHARGE:  cpu time    1.6382: real time    1.6375
    MIXING:  cpu time    0.0746: real time    0.0746
    --------------------------------------------
      LOOP:  cpu time    9.8643: real time    9.8170

 eigenvalue-minimisations  :  4132
 total energy-change (2. order) :-0.6285930E-04  (-0.1008191E-03)
 number of electron     383.9999999 magnetization 
 augmentation part        1.2591674 magnetization 

 Broyden mixing:
  rms(total) = 0.79396E-03    rms(broyden)= 0.79386E-03
  rms(prec ) = 0.11113E-02
  weight for this iteration     100.00

 eigenvalues of (default mixing * dielectric matrix)
  average eigenvalue GAMMA=   1.6400
  2.8221  2.8221  2.2785  1.7612  1.0346  1.0346  1.1508  1.0103  0.8460

 Free energy of the ion-electron system (eV)
  ---------------------------------------------------
  alpha Z        PSCENC =      1204.07652892
  Ewald energy   TEWEN  =    -11641.32042334
  -Hartree energ DENC   =     -1573.05074541
  -exchange      EXHF   =         0.00000000
  -V(xc)+E(xc)   XCENC  =      1053.63416587
  PAW double counting   =     36687.38575607   -36629.84724649
  entropy T*S    EENTRO =         0.00000000
  eigenvalues    EBANDS =      -317.56788094
  atomic energy  EATOM  =     10363.97701633
  Solvation  Ediel_sol  =         0.00000000
  ---------------------------------------------------
  free energy    TOTEN  =      -852.71282899 eV

  energy without entropy =     -852.71282899  energy(sigma->0) =     -852.71282899


--------------------------------------------------------------------------------------------------------




--------------------------------------- Iteration      1(  15)  ---------------------------------------


    POTLOK:  cpu time    0.1312: real time    0.1313
    SETDIJ:  cpu time    0.1260: real time    0.1259
    EDDIAG:  cpu time    1.4855: real time    1.4851
  RMM-DIIS:  cpu time    6.7266: real time    6.6339
    ORTHCH:  cpu time    0.0393: real time    0.0393
 BZINTS: Fermi energy:    6.981562;  384.000000 electrons
         Band energy:-0.317569E+03;  BLOECHL correction:   -0.000000
       DOS:  cpu time    0.0242: real time    0.0242
    CHARGE:  cpu time    1.6351: real time    1.6448
    MIXING:  cpu time    0.0709: real time    0.0708
    --------------------------------------------
      LOOP:  cpu time   10.2388: real time   10.1552

 eigenvalue-minimisations  :  4370
 total energy-change (2. order) :-0.1706112E-04  (-0.1793492E-04)
 number of electron     383.9999999 magnetization 
 augmentation part        1.2589504 magnetization 

 Broyden mixing:
  rms(total) = 0.77725E-03    rms(broyden)= 0.77721E-03
  rms(prec ) = 0.11437E-02
  weight for this iteration     100.00

 eigenvalues of (default mixing * dielectric matrix)
  average eigenvalue GAMMA=   1.6162
  2.7836  2.7836  2.4491  1.5214  1.5214  1.0544  1.0544  1.0671  1.0671  0.8600

 Free energy of the ion-electron system (eV)
  ---------------------------------------------------
  alpha Z        PSCENC =      1204.07652892
  Ewald energy   TEWEN  =    -11641.32042334
  -Hartree energ DENC   =     -1573.04881418
  -exchange      EXHF   =         0.00000000
  -V(xc)+E(xc)   XCENC  =      1053.63381415
  PAW double counting   =     36687.12008386   -36629.58234142
  entropy T*S    EENTRO =         0.00000000
  eigenvalues    EBANDS =      -317.56871037
  atomic energy  EATOM  =     10363.97701633
  Solvation  Ediel_sol  =         0.00000000
  ---------------------------------------------------
  free energy    TOTEN  =      -852.71284605 eV

  energy without entropy =     -852.71284605  energy(sigma->0) =     -852.71284605


--------------------------------------------------------------------------------------------------------




--------------------------------------- Iteration      1(  16)  ---------------------------------------


    POTLOK:  cpu time    0.1310: real time    0.1311
    SETDIJ:  cpu time    0.1263: real time    0.1262
    EDDIAG:  cpu time    1.4881: real time    1.4877
  RMM-DIIS:  cpu time    6.4239: real time    6.3403
    ORTHCH:  cpu time    0.0394: real time    0.0394
 BZINTS: Fermi energy:    6.981256;  384.000000 electrons
         Band energy:-0.317584E+03;  BLOECHL correction:    0.000000
       DOS:  cpu time    0.0241: real time    0.0241
    CHARGE:  cpu time    1.6381: real time    1.6375
    MIXING:  cpu time    0.0865: real time    0.0865
    --------------------------------------------
      LOOP:  cpu time    9.9575: real time    9.8727

 eigenvalue-minimisations  :  4170
 total energy-change (2. order) :-0.8159368E-06  (-0.3326077E-05)
 number of electron     383.9999999 magnetization 
 augmentation part        1.2588657 magnetization 

 Broyden mixing:
  rms(total) = 0.44233E-03    rms(broyden)= 0.44232E-03
  rms(prec ) = 0.64282E-03
  weight for this iteration     100.00

 eigenvalues of (default mixing * dielectric matrix)
  average eigenvalue GAMMA=   1.6372
  3.3133  2.5422  2.2052  1.8837  1.8837  1.0417  1.0417  1.1596  1.1596  0.9514
  0.8268

 Free energy of the ion-electron system (eV)
  ---------------------------------------------------
  alpha Z        PSCENC =      1204.07652892
  Ewald energy   TEWEN  =    -11641.32042334
  -Hartree energ DENC   =     -1573.03332638
  -exchange      EXHF   =         0.00000000
  -V(xc)+E(xc)   XCENC  =      1053.63292237
  PAW double counting   =     36688.17996078   -36630.64201611
  entropy T*S    EENTRO =         0.00000000
  eigenvalues    EBANDS =      -317.58350943
  atomic energy  EATOM  =     10363.97701633
  Solvation  Ediel_sol  =         0.00000000
  ---------------------------------------------------
  free energy    TOTEN  =      -852.71284686 eV

  energy without entropy =     -852.71284686  energy(sigma->0) =     -852.71284686


--------------------------------------------------------------------------------------------------------




--------------------------------------- Iteration      1(  17)  ---------------------------------------


    POTLOK:  cpu time    0.1326: real time    0.1327
    SETDIJ:  cpu time    0.1260: real time    0.1259
    EDDIAG:  cpu time    1.4859: real time    1.4855
[...]
   -.211E+02 -.738E+01 -.173E+02   0.225E+02 0.744E+01 0.179E+02   -.134E+01 -.682E-01 -.610E+00   -.217E-03 -.112E-03 -.994E-04
   -.211E+02 -.738E+01 -.173E+02   0.225E+02 0.744E+01 0.179E+02   -.134E+01 -.682E-01 -.610E+00   -.217E-03 -.111E-03 -.994E-04
   -.211E+02 -.738E+01 -.173E+02   0.225E+02 0.744E+01 0.179E+02   -.134E+01 -.682E-01 -.610E+00   -.217E-03 -.111E-03 -.995E-04
   -.211E+02 -.738E+01 -.173E+02   0.225E+02 0.744E+01 0.179E+02   -.134E+01 -.682E-01 -.610E+00   -.217E-03 -.112E-03 -.995E-04
   -.211E+02 -.738E+01 -.173E+02   0.225E+02 0.744E+01 0.179E+02   -.134E+01 -.682E-01 -.610E+00   -.217E-03 -.112E-03 -.992E-04
   -.211E+02 -.738E+01 -.173E+02   0.225E+02 0.744E+01 0.179E+02   -.134E+01 -.682E-01 -.610E+00   -.217E-03 -.112E-03 -.992E-04
   -.846E+01 -.877E+01 -.460E+02   0.834E+01 0.940E+01 0.504E+02   0.117E+00 -.631E+00 -.443E+01   0.820E-04 -.174E-03 -.122E-03
   -.846E+01 -.877E+01 -.460E+02   0.834E+01 0.940E+01 0.504E+02   0.117E+00 -.631E+00 -.443E+01   0.820E-04 -.174E-03 -.121E-03
   -.846E+01 -.877E+01 -.460E+02   0.834E+01 0.940E+01 0.504E+02   0.117E+00 -.631E+00 -.443E+01   0.819E-04 -.173E-03 -.121E-03
   -.846E+01 -.877E+01 -.460E+02   0.834E+01 0.940E+01 0.504E+02   0.117E+00 -.631E+00 -.443E+01   0.819E-04 -.173E-03 -.121E-03
   -.846E+01 -.877E+01 -.460E+02   0.834E+01 0.940E+01 0.504E+02   0.117E+00 -.631E+00 -.443E+01   0.816E-04 -.173E-03 -.121E-03
   -.846E+01 -.877E+01 -.460E+02   0.834E+01 0.940E+01 0.504E+02   0.117E+00 -.631E+00 -.443E+01   0.817E-04 -.173E-03 -.121E-03
   -.846E+01 -.877E+01 -.460E+02   0.834E+01 0.940E+01 0.504E+02   0.117E+00 -.631E+00 -.443E+01   0.820E-04 -.174E-03 -.121E-03
   -.846E+01 -.877E+01 -.460E+02   0.834E+01 0.940E+01 0.504E+02   0.117E+00 -.631E+00 -.443E+01   0.819E-04 -.174E-03 -.121E-03
   -.180E+02 -.383E+02 -.218E+02   0.190E+02 0.423E+02 0.234E+02   -.990E+00 -.405E+01 -.162E+01   0.151E-03 0.131E-03 0.656E-04
   -.180E+02 -.383E+02 -.218E+02   0.190E+02 0.423E+02 0.234E+02   -.990E+00 -.405E+01 -.162E+01   0.151E-03 0.131E-03 0.659E-04
   -.180E+02 -.383E+02 -.218E+02   0.190E+02 0.423E+02 0.234E+02   -.990E+00 -.405E+01 -.162E+01   0.151E-03 0.131E-03 0.658E-04
   -.180E+02 -.383E+02 -.218E+02   0.190E+02 0.423E+02 0.234E+02   -.990E+00 -.405E+01 -.162E+01   0.151E-03 0.131E-03 0.657E-04
   -.180E+02 -.383E+02 -.218E+02   0.190E+02 0.423E+02 0.234E+02   -.990E+00 -.405E+01 -.162E+01   0.151E-03 0.131E-03 0.656E-04
   -.180E+02 -.383E+02 -.218E+02   0.190E+02 0.423E+02 0.234E+02   -.990E+00 -.405E+01 -.162E+01   0.151E-03 0.131E-03 0.658E-04
   -.180E+02 -.383E+02 -.218E+02   0.190E+02 0.423E+02 0.234E+02   -.990E+00 -.405E+01 -.162E+01   0.151E-03 0.131E-03 0.657E-04
   -.180E+02 -.383E+02 -.218E+02   0.190E+02 0.423E+02 0.234E+02   -.990E+00 -.405E+01 -.162E+01   0.151E-03 0.131E-03 0.660E-04
   0.129E+01 -.242E+01 -.242E+01   -.611E+00 0.214E+01 0.236E+01   -.679E+00 0.277E+00 0.629E-01   -.103E-03 0.130E-03 0.765E-04
   0.129E+01 -.242E+01 -.242E+01   -.611E+00 0.214E+01 0.236E+01   -.679E+00 0.277E+00 0.629E-01   -.103E-03 0.130E-03 0.759E-04
   0.129E+01 -.242E+01 -.242E+01   -.611E+00 0.214E+01 0.236E+01   -.679E+00 0.277E+00 0.629E-01   -.103E-03 0.131E-03 0.761E-04
   0.129E+01 -.242E+01 -.242E+01   -.611E+00 0.214E+01 0.236E+01   -.679E+00 0.277E+00 0.629E-01   -.103E-03 0.131E-03 0.764E-04
   0.129E+01 -.242E+01 -.242E+01   -.611E+00 0.214E+01 0.236E+01   -.679E+00 0.277E+00 0.629E-01   -.103E-03 0.131E-03 0.761E-04
   0.129E+01 -.242E+01 -.242E+01   -.611E+00 0.214E+01 0.236E+01   -.679E+00 0.277E+00 0.629E-01   -.103E-03 0.131E-03 0.765E-04
   0.129E+01 -.242E+01 -.242E+01   -.611E+00 0.214E+01 0.236E+01   -.679E+00 0.277E+00 0.629E-01   -.103E-03 0.131E-03 0.768E-04
   0.129E+01 -.242E+01 -.242E+01   -.611E+00 0.214E+01 0.236E+01   -.679E+00 0.277E+00 0.629E-01   -.103E-03 0.130E-03 0.759E-04
   0.469E+02 0.104E+02 0.312E+02   -.538E+02 -.110E+02 -.346E+02   0.689E+01 0.524E+00 0.335E+01   0.623E-03 0.368E-03 0.446E-03
   0.469E+02 0.104E+02 0.312E+02   -.538E+02 -.110E+02 -.346E+02   0.689E+01 0.524E+00 0.335E+01   0.623E-03 0.368E-03 0.446E-03
   0.469E+02 0.104E+02 0.312E+02   -.538E+02 -.110E+02 -.346E+02   0.689E+01 0.524E+00 0.335E+01   0.623E-03 0.368E-03 0.446E-03
   0.469E+02 0.104E+02 0.312E+02   -.538E+02 -.110E+02 -.346E+02   0.689E+01 0.524E+00 0.335E+01   0.624E-03 0.368E-03 0.446E-03
   0.469E+02 0.104E+02 0.312E+02   -.538E+02 -.110E+02 -.346E+02   0.689E+01 0.524E+00 0.335E+01   0.623E-03 0.368E-03 0.446E-03
   0.469E+02 0.104E+02 0.312E+02   -.538E+02 -.110E+02 -.346E+02   0.689E+01 0.524E+00 0.335E+01   0.623E-03 0.367E-03 0.446E-03
   0.469E+02 0.104E+02 0.312E+02   -.538E+02 -.110E+02 -.346E+02   0.689E+01 0.524E+00 0.335E+01   0.623E-03 0.368E-03 0.446E-03
   0.469E+02 0.104E+02 0.312E+02   -.538E+02 -.110E+02 -.346E+02   0.689E+01 0.524E+00 0.335E+01   0.624E-03 0.368E-03 0.447E-03
   -.141E+02 -.142E+02 -.229E+02   0.159E+02 0.171E+02 0.271E+02   -.178E+01 -.286E+01 -.419E+01   0.544E-04 0.121E-03 -.432E-04
   -.141E+02 -.142E+02 -.229E+02   0.159E+02 0.171E+02 0.271E+02   -.178E+01 -.286E+01 -.419E+01   0.547E-04 0.121E-03 -.436E-04
   -.141E+02 -.142E+02 -.229E+02   0.159E+02 0.171E+02 0.271E+02   -.178E+01 -.286E+01 -.419E+01   0.542E-04 0.121E-03 -.433E-04
   -.141E+02 -.142E+02 -.229E+02   0.159E+02 0.171E+02 0.271E+02   -.178E+01 -.286E+01 -.419E+01   0.541E-04 0.121E-03 -.432E-04
   -.141E+02 -.142E+02 -.229E+02   0.159E+02 0.171E+02 0.271E+02   -.178E+01 -.286E+01 -.419E+01   0.542E-04 0.121E-03 -.437E-04
   -.141E+02 -.142E+02 -.229E+02   0.159E+02 0.171E+02 0.271E+02   -.178E+01 -.286E+01 -.419E+01   0.543E-04 0.121E-03 -.434E-04
   -.141E+02 -.142E+02 -.229E+02   0.159E+02 0.171E+02 0.271E+02   -.178E+01 -.286E+01 -.419E+01   0.546E-04 0.121E-03 -.430E-04
   -.141E+02 -.142E+02 -.229E+02   0.159E+02 0.171E+02 0.271E+02   -.178E+01 -.286E+01 -.419E+01   0.547E-04 0.121E-03 -.438E-04
   0.194E+02 0.142E+02 0.250E+02   -.217E+02 -.175E+02 -.298E+02   0.233E+01 0.324E+01 0.485E+01   -.989E-03 0.134E-03 -.187E-03
   0.194E+02 0.142E+02 0.250E+02   -.217E+02 -.175E+02 -.298E+02   0.233E+01 0.324E+01 0.485E+01   -.989E-03 0.134E-03 -.188E-03
   0.194E+02 0.142E+02 0.250E+02   -.217E+02 -.175E+02 -.298E+02   0.233E+01 0.324E+01 0.485E+01   -.990E-03 0.134E-03 -.187E-03
   0.194E+02 0.142E+02 0.250E+02   -.217E+02 -.175E+02 -.298E+02   0.233E+01 0.324E+01 0.485E+01   -.990E-03 0.134E-03 -.188E-03
   0.194E+02 0.142E+02 0.250E+02   -.217E+02 -.175E+02 -.298E+02   0.233E+01 0.324E+01 0.485E+01   -.990E-03 0.134E-03 -.187E-03
   0.194E+02 0.142E+02 0.250E+02   -.217E+02 -.175E+02 -.298E+02   0.233E+01 0.324E+01 0.485E+01   -.989E-03 0.135E-03 -.188E-03
   0.194E+02 0.142E+02 0.250E+02   -.217E+02 -.175E+02 -.298E+02   0.233E+01 0.324E+01 0.485E+01   -.990E-03 0.134E-03 -.188E-03
   0.194E+02 0.142E+02 0.250E+02   -.217E+02 -.175E+02 -.298E+02   0.233E+01 0.324E+01 0.485E+01   -.990E-03 0.134E-03 -.188E-03
 -----------------------------------------------------------------------------------------------
   -.565E+01 -.994E+01 -.142E+02   0.924E-13 -.590E-12 -.377E-12   0.567E+01 0.995E+01 0.142E+02   -.320E-02 0.234E-02 0.944E-04
 
 
 POSITION                                       TOTAL-FORCE (eV/Angst)
 -----------------------------------------------------------------------------------
      2.47509      4.29737      6.21515        -0.000571      0.000366     -0.001090
      2.43569      4.81988     11.37028        -0.000571      0.000366     -0.001090
      3.78804      9.00496      7.93930        -0.000571      0.000366     -0.001090
      3.74864      9.52747     13.09444        -0.000571      0.000366     -0.001090
      7.05665      4.50929      8.27821        -0.000571      0.000366     -0.001090
      7.01724      5.03181     13.43334        -0.000571      0.000366     -0.001090
      8.36959      9.21688     10.00237        -0.000571      0.000366     -0.001090
      8.33019      9.73940     15.15750        -0.000571      0.000366     -0.001090
      4.71858      4.11294      4.66866        -0.000206      0.000692     -0.000081
      4.67917      4.63545      9.82379        -0.000206      0.000692     -0.000081
      6.03153      8.82053      6.39281        -0.000206      0.000692     -0.000081
      5.99212      9.34304     11.54795        -0.000206      0.000692     -0.000081
      9.30013      4.32486      6.73172        -0.000206      0.000692     -0.000081
      9.26072      4.84738     11.88686        -0.000206      0.000692     -0.000081
     10.61308      9.03245      8.45588        -0.000206      0.000692     -0.000081
     10.57367      9.55497     13.61101        -0.000206      0.000692     -0.000081
      4.06044      2.07711      6.33754         0.000978      0.000212      0.000801
      4.02103      2.59962     11.49268         0.000978      0.000212      0.000801
      5.37339      6.78470      8.06170         0.000978      0.000212      0.000801
      5.33398      7.30721     13.21683         0.000978      0.000212      0.000801
      8.64199      2.28903      8.40061         0.000978      0.000212      0.000801
      8.60259      2.81155     13.55574         0.000978      0.000212      0.000801
      9.95494      6.99662     10.12476         0.000978      0.000212      0.000801
      9.91553      7.51914     15.27990         0.000978      0.000212      0.000801
      3.38019      1.14754      2.73085         0.000396     -0.001200     -0.000422
      3.34078      1.67006      7.88599         0.000396     -0.001200     -0.000422
      4.69314      5.85513      4.45501         0.000396     -0.001200     -0.000422
      4.65373      6.37765      9.61014         0.000396     -0.001200     -0.000422
      7.96174      1.35947      4.79392         0.000396     -0.001200     -0.000422
      7.92233      1.88198      9.94905         0.000396     -0.001200     -0.000422
      9.27469      6.06706      6.51807         0.000396     -0.001200     -0.000422
      9.23528      6.58957     11.67321         0.000396     -0.001200     -0.000422
      1.13882      1.32165      4.28715         0.000499     -0.000053      0.000177
      1.09942      1.84417      9.44228         0.000499     -0.000053      0.000177
      2.45177      6.02924      6.01130         0.000499     -0.000053      0.000177
      2.41237      6.55176     11.16644         0.000499     -0.000053      0.000177
      5.72037      1.53358      6.35021         0.000499     -0.000053      0.000177
      5.68097      2.05609     11.50535         0.000499     -0.000053      0.000177
      7.03332      6.24117      8.07437         0.000499     -0.000053      0.000177
      6.99392      6.76368     13.22950         0.000499     -0.000053      0.000177
      1.80338      3.37744      2.60198        -0.000211      0.000149     -0.000005
      1.76397      3.89995      7.75711        -0.000211      0.000149     -0.000005
      3.11633      8.08503      4.32613        -0.000211      0.000149     -0.000005
      3.07692      8.60754      9.48127        -0.000211      0.000149     -0.000005
      6.38493      3.58936      4.66504        -0.000211      0.000149     -0.000005
      6.34552      4.11188      9.82018        -0.000211      0.000149     -0.000005
      7.69788      8.29695      6.38920        -0.000211      0.000149     -0.000005
      7.65847      8.81947     11.54433        -0.000211      0.000149     -0.000005
      5.80762      5.25233      7.23254        -0.000473      0.000123     -0.000257
      5.76822      5.77484     12.38767        -0.000473      0.000123     -0.000257
      4.49467      0.54474      5.50838        -0.000473      0.000123     -0.000257
      4.45527      1.06725     10.66351        -0.000473      0.000123     -0.000257
     10.38917      5.46425      9.29560        -0.000473      0.000123     -0.000257
     10.34977      5.98676     14.45073        -0.000473      0.000123     -0.000257
      9.07623      0.75666      7.57144        -0.000473      0.000123     -0.000257
      9.03682      1.27917     12.72658        -0.000473      0.000123     -0.000257
      5.37237      3.90466      8.33740        -0.000676     -0.000572     -0.001284
      5.41178      3.38214      3.18227        -0.000676     -0.000572     -0.001284
      6.68532      8.61225     10.06156        -0.000676     -0.000572     -0.001284
      6.72473      8.08974      4.90642        -0.000676     -0.000572     -0.001284
      9.95392      4.11658     10.40047        -0.000676     -0.000572     -0.001284
      9.99333      3.59407      5.24533        -0.000676     -0.000572     -0.001284
     11.26687      8.82417     12.12462        -0.000676     -0.000572     -0.001284
     11.30628      8.30166      6.96949        -0.000676     -0.000572     -0.001284
      1.57295      0.10825      0.75163        -0.001095     -0.000616     -0.000875
      1.53354      0.63076      5.90676        -0.001095     -0.000616     -0.000875
      2.88590      4.81584      2.47579        -0.001095     -0.000616     -0.000875
      2.84649      5.33835      7.63092        -0.001095     -0.000616     -0.000875
      6.15450      0.32017      2.81469        -0.001095     -0.000616     -0.000875
      6.11509      0.84268      7.96983        -0.001095     -0.000616     -0.000875
      7.46745      5.02776      4.53885        -0.001095     -0.000616     -0.000875
      7.42804      5.55027      9.69399        -0.001095     -0.000616     -0.000875
      0.03378      0.19585      1.72538        -0.000368      0.000032      0.000151
     -0.00563      0.71837      6.88051        -0.000368      0.000032      0.000151
      1.34672      4.90344      3.44953        -0.000368      0.000032      0.000151
      1.30732      5.42596      8.60467        -0.000368      0.000032      0.000151
      4.61533      0.40778      3.78844        -0.000368      0.000032      0.000151
      4.57592      0.93029      8.94358        -0.000368      0.000032      0.000151
      5.92828      5.11537      5.51260        -0.000368      0.000032      0.000151
      5.88887      5.63788     10.66773        -0.000368      0.000032      0.000151
      0.47312      1.55580      0.61043         0.000143      0.000543      0.001116
      0.43371      2.07831      5.76556         0.000143      0.000543      0.001116
      1.78607      6.26339      2.33458         0.000143      0.000543      0.001116
      1.74666      6.78590      7.48972         0.000143      0.000543      0.001116
      5.05467      1.76772      2.67349         0.000143      0.000543      0.001116
      5.01527      2.29023      7.82863         0.000143      0.000543      0.001116
      6.36762      6.47531      4.39765         0.000143      0.000543      0.001116
      6.32821      6.99782      9.55278         0.000143      0.000543      0.001116
      2.88823      2.71012      4.44199         0.000024     -0.001658     -0.000813
      2.84882      3.23264      9.59712         0.000024     -0.001658     -0.000813
      4.20118      7.41771      6.16615         0.000024     -0.001658     -0.000813
      4.16177      7.94023     11.32128         0.000024     -0.001658     -0.000813
      7.46978      2.92205      6.50505         0.000024     -0.001658     -0.000813
      7.43037      3.44456     11.66019         0.000024     -0.001658     -0.000813
      8.78273      7.62964      8.22921         0.000024     -0.001658     -0.000813
      8.74332      8.15215     13.38435         0.000024     -0.001658     -0.000813
      4.37698      5.34885      8.24653         0.001142      0.000434      0.000464
      4.33758      5.87136     13.40167         0.001142      0.000434      0.000464
      3.06404      0.64126      6.52238         0.001142      0.000434      0.000464
      3.02463      1.16377     11.67751         0.001142      0.000434      0.000464
      8.95854      5.56077     10.30960         0.001142      0.000434      0.000464
      8.91913      6.08329     15.46473         0.001142      0.000434      0.000464
      7.64559      0.85318      8.58544         0.001142      0.000434      0.000464
      7.60618      1.37570     13.74057         0.001142      0.000434      0.000464
      3.57289      3.37103      5.51774         0.000534      0.000654      0.000746
      3.53348      3.89354     10.67287         0.000534      0.000654      0.000746
      4.88584      8.07862      7.24190         0.000534      0.000654      0.000746
      4.84643      8.60113     12.39703         0.000534      0.000654      0.000746
      8.15444      3.58295      7.58080         0.000534      0.000654      0.000746
      8.11503      4.10546     12.73594         0.000534      0.000654      0.000746
      9.46739      8.29054      9.30496         0.000534      0.000654      0.000746
      9.42798      8.81305     14.46010         0.000534      0.000654      0.000746
      2.23874      2.03426      3.36273        -0.000117      0.000894      0.001370
      2.19933      2.55677      8.51787        -0.000117      0.000894      0.001370
      3.55169      6.74185      5.08689        -0.000117      0.000894      0.001370
      3.51228      7.26436     10.24202        -0.000117      0.000894      0.001370
      6.82029      2.24618      5.42580        -0.000117      0.000894      0.001370
      6.78088      2.76869     10.58093        -0.000117      0.000894      0.001370
      8.13324      6.95377      7.14995        -0.000117      0.000894      0.001370
      8.09383      7.47628     12.30509        -0.000117      0.000894      0.001370
 -----------------------------------------------------------------------------------
    total drift:                                0.014363      0.007606     -0.006591


--------------------------------------------------------------------------------------------------------



  FREE ENERGIE OF THE ION-ELECTRON SYSTEM (eV)
  ---------------------------------------------------
  free  energy   TOTEN  =      -877.21582351 eV

  energy  without entropy=     -877.21582351  energy(sigma->0) =     -877.21582351
 
 d Force = 0.1682492E-05[ 0.616E-07, 0.330E-05]  d Energy = 0.1629947E-05 0.525E-07
 d Force = 0.1873703E-01[ 0.187E-01, 0.187E-01]  d Ewald  = 0.1891236E-01-0.175E-03


--------------------------------------------------------------------------------------------------------


    POTLOK:  cpu time    0.2921: real time    0.2920


--------------------------------------------------------------------------------------------------------




--------------------------------------------------------------------------------------------------------


  
 reached required accuracy - stopping structural energy minimisation
     LOOP+:  cpu time   30.2232: real time   30.2051
    4ORBIT:  cpu time    0.0000: real time    0.0000
 BZINTS: Fermi energy:    8.122125;  384.000000 electrons
         Band energy:-0.348030E+03;  BLOECHL correction:   -0.000000

 total amount of memory used by VASP MPI-rank0  1886348. kBytes
=======================================================================

   base      :      30000. kBytes
   nonlr-proj:      56103. kBytes
   fftplans  :     213988. kBytes
   grid      :     382371. kBytes
   one-center:        368. kBytes
   wavefun   :    1203518. kBytes
 
  
  
 General timing and accounting informations for this job:
 ========================================================
  
                  Total CPU time used (sec):     2436.960
                            User time (sec):     1977.272
                          System time (sec):      459.688
                         Elapsed time (sec):     2429.059
  
                   Maximum memory used (kb):     3907444.
                   Average memory used (kb):          N/A
  
                          Minor page faults:     31204073
                          Major page faults:            0
                 Voluntary context switches:       603561
