<?xml version="1.0" encoding="ISO-8859-1"?>
<modeling>
 <generator>
  <i name="program" type="string">vasp </i>
  <i name="version" type="string">6.2.0  </i>
  <i name="subversion" type="string">18Jan21 (build Feb 25 2021 07:51:20) complex                          parallel </i>
  <i name="platform" type="string">LinuxPGI </i>
  <i name="date" type="string">2022 05 18 </i>
  <i name="time" type="string">06:58:43 </i>
 </generator>
 <incar>
  <i type="string" name="PREC">Accurate</i>
  <i type="string" name="ALGO">Fast</i>
  <i type="int" name="IBRION">     2</i>
  <i name="EDIFF">      0.00000100</i>
  <i type="int" name="NSW">   300</i>
  <i type="int" name="ISIF">     4</i>
  <i name="ENCUT">    700.00000000</i>
  <i type="string" name="LREAL">Auto</i>
  <i type="int" name="ISMEAR">    -5</i>
  <i name="SIGMA">      0.05000000</i>
  <i type="logical" name="LWAVE"> F  </i>
 </incar>
 <primitive_cell>
  <structure name="primitive_cell" >
   <crystal>
    <varray name="basis" >
     <v>      -1.36409550      -3.96276900       3.01110950 </v>
     <v>      -5.98363900      -4.36506600       0.94976600 </v>
     <v>       3.28117000      -4.53321450      -0.04657900 </v>
    </varray>
    <i name="volume">    107.40805928 </i>
    <varray name="rec_basis" >
     <v>       0.04197835       0.02641917       0.38588950 </v>
     <v>      -0.12880399      -0.09139374      -0.17862958 </v>
     <v>       0.08733040      -0.15568497      -0.16532663 </v>
    </varray>
   </crystal>
   <varray name="positions" >
    <v>       0.73839400       0.06912200       0.38496800 </v>
    <v>       0.23682000       0.07762000       0.88088400 </v>
    <v>       0.72705600       0.07762000       0.88088400 </v>
    <v>       0.26272200       0.93060800       0.61334000 </v>
    <v>       0.76591600       0.92150600       0.11890600 </v>
    <v>       0.27216600       0.92150600       0.11890600 </v>
    <v>       0.33088400       0.34271200       0.33160600 </v>
    <v>       0.65208600       0.34271200       0.33160600 </v>
    <v>       0.35929000       0.64661000       0.98820000 </v>
    <v>       0.66990800       0.65881600       0.66576600 </v>
    <v>       0.34669400       0.65881600       0.66576600 </v>
    <v>       0.99004400       0.50797400       0.00396400 </v>
    <v>       0.66424000       0.33161600       0.00828800 </v>
    <v>       0.46879800       0.15007600       0.76225200 </v>
    <v>       0.51498800       0.86268200       0.24466000 </v>
   </varray>
  </structure>
  <varray name="primitive_index" >
   <v type="int" >        1 </v>
   <v type="int" >        9 </v>
   <v type="int" >       17 </v>
   <v type="int" >       28 </v>
   <v type="int" >       35 </v>
   <v type="int" >       42 </v>
   <v type="int" >       53 </v>
   <v type="int" >       61 </v>
   <v type="int" >       68 </v>
   <v type="int" >       75 </v>
   <v type="int" >       82 </v>
   <v type="int" >       89 </v>
   <v type="int" >       97 </v>
   <v type="int" >      105 </v>
   <v type="int" >      113 </v>
  </varray>
 </primitive_cell>
 <kpoints>
  <generation param="Gamma">
   <v type="int" name="divisions">       2        2        2 </v>
   <v name="usershift">      0.00000000       0.00000000       0.00000000 </v>
   <v name="genvec1">      0.50000000       0.00000000       0.00000000 </v>
   <v name="genvec2">      0.00000000       0.50000000       0.00000000 </v>
   <v name="genvec3">     -0.00000000       0.00000000       0.50000000 </v>
   <v name="shift">      0.00000000       0.00000000       0.00000000 </v>
  </generation>
  <varray name="kpointlist" >
   <v>       0.00000000       0.00000000       0.00000000 </v>
   <v>       0.50000000       0.00000000       0.00000000 </v>
   <v>       0.00000000       0.50000000       0.00000000 </v>
   <v>       0.50000000       0.50000000       0.00000000 </v>
   <v>       0.00000000       0.00000000       0.50000000 </v>
   <v>       0.50000000       0.00000000       0.50000000 </v>
   <v>       0.00000000       0.50000000       0.50000000 </v>
   <v>       0.50000000       0.50000000       0.50000000 </v>
  </varray>
  <varray name="weights" >
   <v>       0.12500000 </v>
   <v>       0.12500000 </v>
   <v>       0.12500000 </v>
   <v>       0.12500000 </v>
   <v>       0.12500000 </v>
   <v>       0.12500000 </v>
   <v>       0.12500000 </v>
   <v>       0.12500000 </v>
  </varray>
  <varray name="tetrahedronlist"  type="int" >
   <v type="int" >        2        1        3        4        8 </v>
   <v type="int" >        2        1        2        4        8 </v>
   <v type="int" >        2        1        2        6        8 </v>
   <v type="int" >        2        1        3        7        8 </v>
   <v type="int" >        2        1        5        7        8 </v>
   <v type="int" >        2        1        5        6        8 </v>
   <v type="int" >        2        2        3        4        7 </v>
   <v type="int" >        2        1        2        3        7 </v>
   <v type="int" >        2        1        2        5        7 </v>
   <v type="int" >        2        2        4        7        8 </v>
   <v type="int" >        2        2        6        7        8 </v>
   <v type="int" >        2        2        5        6        7 </v>
   <v type="int" >        2        1        2        3        6 </v>
   <v type="int" >        2        2        3        4        6 </v>
   <v type="int" >        2        3        4        6        8 </v>
   <v type="int" >        2        1        3        5        6 </v>
   <v type="int" >        2        3        5        6        7 </v>
   <v type="int" >        2        3        6        7        8 </v>
   <v type="int" >        2        1        2        4        5 </v>
   <v type="int" >        2        1        3        4        5 </v>
   <v type="int" >        2        3        4        5        7 </v>
   <v type="int" >        2        2        4        5        6 </v>
   <v type="int" >        2        4        5        6        8 </v>
   <v type="int" >        2        4        5        7        8 </v>
  </varray>
  <i name="volumeweight">      0.02083333 </i>
 </kpoints>
 <parameters>
  <separator name="general" >
   <i type="string" name="SYSTEM">unknown system</i>
   <i type="logical" name="LCOMPAT"> F  </i>
  </separator>
  <separator name="electronic" >
   <i type="string" name="PREC">accura</i>
   <i name="ENMAX">    700.00000000</i>
   <i name="ENAUG">    644.87300000</i>
   <i name="EDIFF">      0.00000100</i>
   <i type="int" name="IALGO">    68</i>
   <i type="int" name="IWAVPR">    11</i>
   <i type="int" name="NBANDS">   253</i>
   <i type="int" name="NBANDSLOW">    -1</i>
   <i type="int" name="NBANDSHIGH">    -1</i>
   <i name="NELECT">    384.00000000</i>
   <i type="int" name="TURBO">     0</i>
   <i type="int" name="IRESTART">     0</i>
   <i type="int" name="NREBOOT">     0</i>
   <i type="int" name="NMIN">     0</i>
   <i name="EREF">      0.00000000</i>
   <separator name="electronic smearing" >
    <i type="int" name="ISMEAR">    -5</i>
    <i name="SIGMA">      0.05000000</i>
    <i name="KSPACING">      0.50000000</i>
    <i type="logical" name="KGAMMA"> T  </i>
    <i type="logical" name="KBLOWUP"> T  </i>
   </separator>
   <separator name="electronic projectors" >
    <i type="logical" name="LREAL"> T  </i>
    <v name="ROPT">     -0.00025000     -0.00025000</v>
    <i type="int" name="LMAXPAW">  -100</i>
    <i type="int" name="LMAXMIX">     2</i>
    <i type="logical" name="NLSPLINE"> F  </i>
   </separator>
   <separator name="electronic startup" >
    <i type="int" name="ISTART">     0</i>
    <i type="int" name="ICHARG">     2</i>
    <i type="int" name="INIWAV">     1</i>
   </separator>
   <separator name="electronic spin" >
    <i type="int" name="ISPIN">     1</i>
    <i type="logical" name="LNONCOLLINEAR"> F  </i>
    <v name="MAGMOM">      1.00000000      1.00000000      1.00000000      1.00000000      1.00000000      1.00000000      1.00000000      1.00000000      1.00000000      1.00000000      1.00000000      1.00000000      1.00000000      1.00000000      1.00000000      1.00000000      1.00000000      1.00000000      1.00000000      1.00000000
      1.00000000      1.00000000      1.00000000      1.00000000      1.00000000      1.00000000      1.00000000      1.00000000      1.00000000      1.00000000      1.00000000      1.00000000      1.00000000      1.00000000      1.00000000      1.00000000      1.00000000      1.00000000      1.00000000      1.00000000
      1.00000000      1.00000000      1.00000000      1.00000000      1.00000000      1.00000000      1.00000000      1.00000000      1.00000000      1.00000000      1.00000000      1.00000000      1.00000000      1.00000000      1.00000000      1.00000000      1.00000000      1.00000000      1.00000000      1.00000000
      1.00000000      1.00000000      1.00000000      1.00000000      1.00000000      1.00000000      1.00000000      1.00000000      1.00000000      1.00000000      1.00000000      1.00000000      1.00000000      1.00000000      1.00000000      1.00000000      1.00000000      1.00000000      1.00000000      1.00000000
      1.00000000      1.00000000      1.00000000      1.00000000      1.00000000      1.00000000      1.00000000      1.00000000      1.00000000      1.00000000      1.00000000      1.00000000      1.00000000      1.00000000      1.00000000      1.00000000      1.00000000      1.00000000      1.00000000      1.00000000
      1.00000000      1.00000000      1.00000000      1.00000000      1.00000000      1.00000000      1.00000000      1.00000000      1.00000000      1.00000000      1.00000000      1.00000000      1.00000000      1.00000000      1.00000000      1.00000000      1.00000000      1.00000000      1.00000000      1.00000000
</v>
    <i name="NUPDOWN">     -1.00000000</i>
    <i type="logical" name="LSORBIT"> F  </i>
    <v name="SAXIS">      0.00000000      0.00000000      1.00000000</v>
    <i type="logical" name="LSPIRAL"> F  </i>
    <v name="QSPIRAL">      0.00000000      0.00000000      0.00000000</v>
    <i type="logical" name="LZEROZ"> F  </i>
   </separator>
   <separator name="electronic exchange-correlation" >
    <i type="logical" name="LASPH"> F  </i>
    <i type="logical" name="LMETAGGA"> F  </i>
   </separator>
   <separator name="electronic convergence" >
    <i type="int" name="NELM">    60</i>
    <i type="int" name="NELMDL">    -5</i>
    <i type="int" name="NELMIN">     2</i>
    <i name="ENINI">    700.00000000</i>
    <separator name="electronic convergence detail" >
     <i type="logical" name="LDIAG"> T  </i>
     <i type="logical" name="LSUBROT"> F  </i>
     <i name="WEIMIN">      0.00100000</i>
     <i name="EBREAK">      0.00000000</i>
     <i name="DEPER">      0.30000000</i>
     <i type="int" name="NRMM">     4</i>
     <i name="TIME">      0.40000000</i>
    </separator>
   </separator>
   <separator name="electronic mixer" >
    <i name="AMIX">      0.40000000</i>
    <i name="BMIX">      1.00000000</i>
    <i name="AMIN">      0.10000000</i>
    <i name="AMIX_MAG">      1.60000000</i>
    <i name="BMIX_MAG">      1.00000000</i>
    <separator name="electronic mixer details" >
     <i type="int" name="IMIX">     4</i>
     <i type="logical" name="MIXFIRST"> F  </i>
     <i type="int" name="MAXMIX">   -45</i>
     <i name="WC">    100.00000000</i>
     <i type="int" name="INIMIX">     1</i>
     <i type="int" name="MIXPRE">     1</i>
     <i type="int" name="MREMOVE">     5</i>
    </separator>
   </separator>
   <separator name="electronic dipolcorrection" >
    <i type="logical" name="LDIPOL"> F  </i>
    <i type="logical" name="LMONO"> F  </i>
    <i type="int" name="IDIPOL">     0</i>
    <i name="EPSILON">      1.00000000</i>
    <v name="DIPOL">   -100.00000000   -100.00000000   -100.00000000</v>
    <i name="EFIELD">      0.00000000</i>
   </separator>
  </separator>
  <separator name="grids" >
   <i type="int" name="NGX">    90</i>
   <i type="int" name="NGY">    96</i>
   <i type="int" name="NGZ">    90</i>
   <i type="int" name="NGXF">   180</i>
   <i type="int" name="NGYF">   192</i>
   <i type="int" name="NGZF">   180</i>
   <i type="logical" name="ADDGRID"> F  </i>
  </separator>
  <separator name="ionic" >
   <i type="int" name="NSW">   300</i>
   <i type="int" name="IBRION">     2</i>
   <i type="int" name="MDALGO">     0</i>
   <i type="int" name="ISIF">     4</i>
   <i name="PSTRESS">      0.00000000</i>
   <i name="EDIFFG">      0.00001000</i>
   <i type="int" name="NFREE">     1</i>
   <i name="POTIM">      0.50000000</i>
   <i name="SMASS">     -3.00000000</i>
   <i name="SCALEE">      1.00000000</i>
  </separator>
  <separator name="ionic md" >
   <i name="TEBEG">      0.00010000</i>
   <i name="TEEND">      0.00010000</i>
   <i type="int" name="NBLOCK">     1</i>
   <i type="int" name="KBLOCK">   300</i>
   <i type="int" name="NPACO">   256</i>
   <i name="APACO">     16.00000000</i>
  </separator>
  <separator name="symmetry" >
   <i type="int" name="ISYM">     2</i>
   <i name="SYMPREC">      0.00001000</i>
  </separator>
  <separator name="dos" >
   <i type="int" name="LORBIT">     0</i>
   <v name="RWIGS">     -1.00000000     -1.00000000</v>
   <i type="int" name="NEDOS">   301</i>
   <i name="EMIN">     10.00000000</i>
   <i name="EMAX">    -10.00000000</i>
   <i name="EFERMI">      0.00000000</i>
  </separator>
  <separator name="writing" >
   <i type="int" name="NWRITE">     2</i>
   <i type="logical" name="LWAVE"> F  </i>
   <i type="logical" name="LDOWNSAMPLE"> F  </i>
   <i type="logical" name="LCHARG"> T  </i>
   <i type="logical" name="LPARD"> F  </i>
   <i type="logical" name="LVTOT"> F  </i>
   <i type="logical" name="LVHAR"> F  </i>
   <i type="logical" name="LELF"> F  </i>
   <i type="logical" name="LOPTICS"> F  </i>
   <v name="STM">      0.00000000      0.00000000      0.00000000      0.00000000      0.00000000      0.00000000      0.00000000</v>
  </separator>
  <separator name="performance" >
   <i type="int" name="NPAR">     1</i>
   <i type="int" name="NSIM">     4</i>
   <i type="int" name="NBLK">    -1</i>
   <i type="logical" name="LPLANE"> T  </i>
   <i type="logical" name="LSCALAPACK"> T  </i>
   <i type="logical" name="LSCAAWARE"> F  </i>
   <i type="logical" name="LSCALU"> F  </i>
   <i type="logical" name="LASYNC"> F  </i>
   <i type="logical" name="LORBITALREAL"> F  </i>
  </separator>
  <separator name="miscellaneous" >
   <i type="int" name="IDIOT">     3</i>
   <i type="int" name="PHON_NSTRUCT">    -1</i>
   <i type="logical" name="LMUSIC"> F  </i>
   <v name="POMASS">     10.81100000     12.01100000</v>
   <v name="DARWINR">      0.00000000      0.00000000</v>
   <v name="DARWINV">      1.00000000      1.00000000</v>
   <i type="logical" name="LCORR"> T  </i>
  </separator>
  <i type="logical" name="GGA_COMPAT"> T  </i>
  <i type="logical" name="LBERRY"> F  </i>
  <i type="int" name="ICORELEVEL">     0</i>
  <i type="logical" name="LDAU"> F  </i>
  <i type="int" name="I_CONSTRAINED_M">     0</i>
  <separator name="electronic exchange-correlation" >
   <i type="string" name="GGA">--</i>
   <i type="int" name="VOSKOWN">     0</i>
   <i type="logical" name="LHFCALC"> F  </i>
   <i type="string" name="PRECFOCK"></i>
   <i type="logical" name="LSYMGRAD"> F  </i>
   <i type="logical" name="LHFONE"> F  </i>
   <i type="logical" name="LRHFCALC"> F  </i>
   <i type="logical" name="LTHOMAS"> F  </i>
   <i type="logical" name="LMODELHF"> F  </i>
   <i type="logical" name="LFOCKACE"> F  </i>
   <i name="ENCUT4O">     -1.00000000</i>
   <i type="int" name="EXXOEP">     0</i>
   <i type="int" name="FOURORBIT">     0</i>
   <i name="AEXX">      0.00000000</i>
   <i name="HFALPHA">      0.00000000</i>
   <i name="MCALPHA">      0.00000000</i>
   <i name="ALDAX">      1.00000000</i>
   <i name="AGGAX">      1.00000000</i>
   <i name="ALDAC">      1.00000000</i>
   <i name="AGGAC">      1.00000000</i>
   <i type="int" name="NKREDX">     1</i>
   <i type="int" name="NKREDY">     1</i>
   <i type="int" name="NKREDZ">     1</i>
   <i type="logical" name="SHIFTRED"> F  </i>
   <i type="logical" name="ODDONLY"> F  </i>
   <i type="logical" name="EVENONLY"> F  </i>
   <i type="int" name="LMAXFOCK">     0</i>
   <i type="int" name="NMAXFOCKAE">     0</i>
   <i type="logical" name="LFOCKAEDFT"> F  </i>
   <i name="HFSCREEN">      0.00000000</i>
   <i name="HFSCREENC">      0.00000000</i>
   <i type="int" name="NBANDSGWLOW">     0</i>
  </separator>
  <separator name="vdW DFT" >
   <i type="logical" name="LUSE_VDW"> F  </i>
   <i name="Zab_VDW">     -0.84910000</i>
   <i name="PARAM1">      0.12340000</i>
   <i name="PARAM2">      1.00000000</i>
   <i name="PARAM3">      0.00000000</i>
  </separator>
  <separator name="model GW" >
   <i type="int" name="MODEL_GW">     0</i>
   <i name="MODEL_EPS0">      4.29632237</i>
   <i name="MODEL_ALPHA">      1.00000000</i>
  </separator>
  <separator name="linear response parameters" >
   <i type="logical" name="LEPSILON"> F  </i>
   <i type="logical" name="LRPA"> F  </i>
   <i type="logical" name="LNABLA"> F  </i>
   <i type="logical" name="LVEL"> F  </i>
   <i type="int" name="KINTER">     0</i>
   <i name="CSHIFT">      0.10000000</i>
   <i name="OMEGAMAX">     -1.00000000</i>
   <i name="DEG_THRESHOLD">      0.00200000</i>
   <i name="RTIME">     -0.10000000</i>
   <i name="WPLASMAI">      0.00000000</i>
   <v name="DFIELD">      0.00000000      0.00000000      0.00000000</v>
   <v name="WPLASMA">      0.00000000      0.00000000      0.00000000      0.00000000      0.00000000      0.00000000      0.00000000      0.00000000      0.00000000</v>
  </separator>
  <separator name="orbital magnetization" >
   <i type="logical" name="NUCIND"> F  </i>
   <v name="MAGPOS">      0.00000000      0.00000000      0.00000000</v>
   <i type="logical" name="LNICSALL"> T  </i>
   <i type="logical" name="ORBITALMAG"> F  </i>
   <i type="logical" name="LMAGBLOCH"> F  </i>
   <i type="logical" name="LCHIMAG"> F  </i>
   <i type="logical" name="LGAUGE"> T  </i>
   <i type="int" name="MAGATOM">     0</i>
   <v name="MAGDIPOL">      0.00000000      0.00000000      0.00000000</v>
   <v name="AVECCONST">      0.00000000      0.00000000      0.00000000</v>
  </separator>
  <separator name="response functions" >
   <i type="logical" name="LFINITE_TEMPERATURE"> F  </i>
   <i type="logical" name="LADDER"> F  </i>
   <i type="logical" name="LRPAFORCE"> F  </i>
   <i type="logical" name="LFXC"> F  </i>
   <i type="logical" name="LHARTREE"> T  </i>
   <i type="int" name="IBSE">     0</i>
   <v type="int" name="KPOINT">    -1     0     0     0</v>
   <i type="logical" name="LTCTC"> F  </i>
   <i type="logical" name="LTCTE"> F  </i>
   <i type="logical" name="LTETE"> F  </i>
   <i type="logical" name="LTRIPLET"> F  </i>
   <i type="logical" name="LFXCEPS"> F  </i>
   <i type="logical" name="LFXHEG"> F  </i>
   <i type="int" name="NATURALO">     2</i>
   <i type="logical" name="LHOLEGF"> F  </i>
   <i type="logical" name="L2ORDER"> F  </i>
   <i type="logical" name="LDMP1"> F  </i>
   <i type="logical" name="LMP2LT"> F  </i>
   <i type="logical" name="LSMP2LT"> F  </i>
   <i type="logical" name="LGWLF"> F  </i>
   <i name="ENCUTGW">     -2.00000000</i>
   <i name="ENCUTGWSOFT">     -2.00000000</i>
   <i name="ENCUTLF">     -1.00000000</i>
   <i type="logical" name="LESF_SPLINES"> F  </i>
   <i type="int" name="LMAXMP2">    -1</i>
   <i name="SCISSOR">      0.00000000</i>
   <i type="int" name="NOMEGA">     0</i>
   <i type="int" name="NOMEGAR">     0</i>
   <i type="int" name="NBANDSGW">    -1</i>
   <i type="int" name="NBANDSO">    -1</i>
   <i type="int" name="NBANDSV">    -1</i>
   <i type="int" name="NELM">     1</i>
   <i type="int" name="NELMHF">     1</i>
   <i type="int" name="DIM">     3</i>
   <i type="int" name="IESPILON">     4</i>
   <i type="int" name="ANTIRES">     0</i>
   <i name="OMEGAMAX">    -30.00000000</i>
   <i name="OMEGAMIN">    -30.00000000</i>
   <i name="OMEGATL">   -200.00000000</i>
   <i type="int" name="OMEGAGRID">     0</i>
   <i name="CSHIFT">     -0.10000000</i>
   <i type="logical" name="LSELFENERGY"> F  </i>
   <i type="logical" name="LSPECTRAL"> F  </i>
   <i type="logical" name="LSPECTRALGW"> F  </i>
   <i type="logical" name="LSINGLES"> F  </i>
   <i type="logical" name="LFERMIGW"> F  </i>
   <i type="logical" name="ODDONLYGW"> F  </i>
   <i type="logical" name="EVENONLYGW"> F  </i>
   <i type="int" name="NKREDLFX">     1</i>
   <i type="int" name="NKREDLFY">     1</i>
   <i type="int" name="NKREDLFZ">     1</i>
   <i type="int" name="MAXMEM">  2800</i>
   <i type="int" name="TELESCOPE">     0</i>
   <i type="int" name="NTAUPAR">    -1</i>
   <i type="int" name="NOMEGAPAR">    -1</i>
   <i name="DAMP_NEWTON">      0.80000001</i>
   <i name="LAMBDA">      1.00000000</i>
  </separator>
  <separator name="External order field" >
   <i name="OFIELD_KAPPA">      0.00000000</i>
   <v name="OFIELD_K">      0.00000000      0.00000000      0.00000000</v>
   <i name="OFIELD_Q6_NEAR">      0.00000000</i>
   <i name="OFIELD_Q6_FAR">      0.00000000</i>
   <i name="OFIELD_A">      0.00000000</i>
  </separator>
 </parameters>
 <atominfo>
  <atoms>     120 </atoms>
  <types>       2 </types>
  <array name="atoms" >
   <dimension dim="1">ion</dimension>
   <field type="string">element</field>
   <field type="int">atomtype</field>
   <set>
    <rc><c>B </c><c>   1</c></rc>
    <rc><c>B </c><c>   1</c></rc>
    <rc><c>B </c><c>   1</c></rc>
    <rc><c>B </c><c>   1</c></rc>
    <rc><c>B </c><c>   1</c></rc>
    <rc><c>B </c><c>   1</c></rc>
    <rc><c>B </c><c>   1</c></rc>
    <rc><c>B </c><c>   1</c></rc>
    <rc><c>B </c><c>   1</c></rc>
    <rc><c>B </c><c>   1</c></rc>
    <rc><c>B </c><c>   1</c></rc>
    <rc><c>B </c><c>   1</c></rc>
    <rc><c>B </c><c>   1</c></rc>
    <rc><c>B </c><c>   1</c></rc>
    <rc><c>B </c><c>   1</c></rc>
    <rc><c>B </c><c>   1</c></rc>
    <rc><c>B </c><c>   1</c></rc>
    <rc><c>B </c><c>   1</c></rc>
    <rc><c>B </c><c>   1</c></rc>
    <rc><c>B </c><c>   1</c></rc>
    <rc><c>B </c><c>   1</c></rc>
    <rc><c>B </c><c>   1</c></rc>
    <rc><c>B </c><c>   1</c></rc>
    <rc><c>B </c><c>   1</c></rc>
    <rc><c>B </c><c>   1</c></rc>
    <rc><c>B </c><c>   1</c></rc>
    <rc><c>B </c><c>   1</c></rc>
    <rc><c>B </c><c>   1</c></rc>
    <rc><c>B </c><c>   1</c></rc>
    <rc><c>B </c><c>   1</c></rc>
    <rc><c>B </c><c>   1</c></rc>
    <rc><c>B </c><c>   1</c></rc>
    <rc><c>B </c><c>   1</c></rc>
    <rc><c>B </c><c>   1</c></rc>
    <rc><c>B </c><c>   1</c></rc>
    <rc><c>B </c><c>   1</c></rc>
    <rc><c>B </c><c>   1</c></rc>
    <rc><c>B </c><c>   1</c></rc>
    <rc><c>B </c><c>   1</c></rc>
    <rc><c>B </c><c>   1</c></rc>
    <rc><c>B </c><c>   1</c></rc>
    <rc><c>B </c><c>   1</c></rc>
    <rc><c>B </c><c>   1</c></rc>
    <rc><c>B </c><c>   1</c></rc>
    <rc><c>B </c><c>   1</c></rc>
    <rc><c>B </c><c>   1</c></rc>
    <rc><c>B </c><c>   1</c></rc>
    <rc><c>B </c><c>   1</c></rc>
    <rc><c>B </c><c>   1</c></rc>
    <rc><c>B </c><c>   1</c></rc>
    <rc><c>B </c><c>   1</c></rc>
    <rc><c>B </c><c>   1</c></rc>
    <rc><c>B </c><c>   1</c></rc>
    <rc><c>B </c><c>   1</c></rc>
    <rc><c>B </c><c>   1</c></rc>
    <rc><c>B </c><c>   1</c></rc>
    <rc><c>B </c><c>   1</c></rc>
    <rc><c>B </c><c>   1</c></rc>
    <rc><c>B </c><c>   1</c></rc>
    <rc><c>B </c><c>   1</c></rc>
    <rc><c>B </c><c>   1</c></rc>
    <rc><c>B </c><c>   1</c></rc>
    <rc><c>B </c><c>   1</c></rc>
    <rc><c>B </c><c>   1</c></rc>
    <rc><c>B </c><c>   1</c></rc>
    <rc><c>B </c><c>   1</c></rc>
    <rc><c>B </c><c>   1</c></rc>
    <rc><c>B </c><c>   1</c></rc>
    <rc><c>B </c><c>   1</c></rc>
    <rc><c>B </c><c>   1</c></rc>
    <rc><c>B </c><c>   1</c></rc>
    <rc><c>B </c><c>   1</c></rc>
    <rc><c>B </c><c>   1</c></rc>
    <rc><c>B </c><c>   1</c></rc>
    <rc><c>B </c><c>   1</c></rc>
    <rc><c>B </c><c>   1</c></rc>
    <rc><c>B </c><c>   1</c></rc>
    <rc><c>B </c><c>   1</c></rc>
    <rc><c>B </c><c>   1</c></rc>
    <rc><c>B </c><c>   1</c></rc>
    <rc><c>B </c><c>   1</c></rc>
    <rc><c>B </c><c>   1</c></rc>
    <rc><c>B </c><c>   1</c></rc>
    <rc><c>B </c><c>   1</c></rc>
    <rc><c>B </c><c>   1</c></rc>
    <rc><c>B </c><c>   1</c></rc>
    <rc><c>B </c><c>   1</c></rc>
    <rc><c>B </c><c>   1</c></rc>
    <rc><c>B </c><c>   1</c></rc>
    <rc><c>B </c><c>   1</c></rc>
    <rc><c>B </c><c>   1</c></rc>
    <rc><c>B </c><c>   1</c></rc>
    <rc><c>B </c><c>   1</c></rc>
    <rc><c>B </c><c>   1</c></rc>
    <rc><c>B </c><c>   1</c></rc>
    <rc><c>B </c><c>   1</c></rc>
    <rc><c>C </c><c>   2</c></rc>
    <rc><c>C </c><c>   2</c></rc>
    <rc><c>C </c><c>   2</c></rc>
    <rc><c>C </c><c>   2</c></rc>
    <rc><c>C </c><c>   2</c></rc>
    <rc><c>C </c><c>   2</c></rc>
    <rc><c>C </c><c>   2</c></rc>
    <rc><c>C </c><c>   2</c></rc>
    <rc><c>C </c><c>   2</c></rc>
    <rc><c>C </c><c>   2</c></rc>
    <rc><c>C </c><c>   2</c></rc>
    <rc><c>C </c><c>   2</c></rc>
    <rc><c>C </c><c>   2</c></rc>
    <rc><c>C </c><c>   2</c></rc>
    <rc><c>C </c><c>   2</c></rc>
    <rc><c>C </c><c>   2</c></rc>
    <rc><c>C </c><c>   2</c></rc>
    <rc><c>C </c><c>   2</c></rc>
    <rc><c>C </c><c>   2</c></rc>
    <rc><c>C </c><c>   2</c></rc>
    <rc><c>C </c><c>   2</c></rc>
    <rc><c>C </c><c>   2</c></rc>
    <rc><c>C </c><c>   2</c></rc>
    <rc><c>C </c><c>   2</c></rc>
   </set>
  </array>
  <array name="atomtypes" >
   <dimension dim="1">type</dimension>
   <field type="int">atomspertype</field>
   <field type="string">element</field>
   <field>mass</field>
   <field>valence</field>
   <field type="string">pseudopotential</field>
   <set>
    <rc><c>  96</c><c>B </c><c>     10.81100000</c><c>      3.00000000</c><c>  PAW_PBE B 06Sep2000                   </c></rc>
    <rc><c>  24</c><c>C </c><c>     12.01100000</c><c>      4.00000000</c><c>  PAW_PBE C 08Apr2002                   </c></rc>
   </set>
  </array>
 </atominfo>
 <structure name="initialpos" >
  <crystal>
   <varray name="basis" >
    <v>       9.23908700       0.80459400       4.12268700 </v>
    <v>       2.67674700       9.87102300       4.21584500 </v>
    <v>      -0.05144400       1.94548500      10.23806400 </v>
   </varray>
   <i name="volume">    859.26447427 </i>
   <varray name="rec_basis" >
    <v>       0.10806720      -0.03214562       0.00665147 </v>
    <v>      -0.00025238       0.11032977      -0.02096665 </v>
    <v>      -0.04341282      -0.03248728       0.10362996 </v>
   </varray>
  </crystal>
  <varray name="positions" >
   <v>       0.15792300       0.40375800       0.40375800 </v>
   <v>       0.15792300       0.40375800       0.90375800 </v>
   <v>       0.15792300       0.90375800       0.40375800 </v>
   <v>       0.15792300       0.90375800       0.90375800 </v>
   <v>       0.65792300       0.40375800       0.40375800 </v>
   <v>       0.65792300       0.40375800       0.90375800 </v>
   <v>       0.65792300       0.90375800       0.40375800 </v>
   <v>       0.65792300       0.90375800       0.90375800 </v>
   <v>       0.40163200       0.40233800       0.15722000 </v>
   <v>       0.40163200       0.40233800       0.65722000 </v>
   <v>       0.40163200       0.90233800       0.15722000 </v>
   <v>       0.40163200       0.90233800       0.65722000 </v>
   <v>       0.90163200       0.40233800       0.15722000 </v>
   <v>       0.90163200       0.40233800       0.65722000 </v>
   <v>       0.90163200       0.90233800       0.15722000 </v>
   <v>       0.90163200       0.90233800       0.65722000 </v>
   <v>       0.40163200       0.15722000       0.40233800 </v>
   <v>       0.40163200       0.15722000       0.90233800 </v>
   <v>       0.40163200       0.65722000       0.40233800 </v>
   <v>       0.40163200       0.65722000       0.90233800 </v>
   <v>       0.90163200       0.15722000       0.40233800 </v>
   <v>       0.90163200       0.15722000       0.90233800 </v>
   <v>       0.90163200       0.65722000       0.40233800 </v>
   <v>       0.90163200       0.65722000       0.90233800 </v>
   <v>       0.34136600       0.09666500       0.09666500 </v>
   <v>       0.34136600       0.09666500       0.59666500 </v>
   <v>       0.34136600       0.59666500       0.09666500 </v>
   <v>       0.34136600       0.59666500       0.59666500 </v>
   <v>       0.84136600       0.09666500       0.09666500 </v>
   <v>       0.84136600       0.09666500       0.59666500 </v>
   <v>       0.84136600       0.59666500       0.09666500 </v>
   <v>       0.84136600       0.59666500       0.59666500 </v>
   <v>       0.09870000       0.09683600       0.34371100 </v>
   <v>       0.09870000       0.09683600       0.84371100 </v>
   <v>       0.09870000       0.59683600       0.34371100 </v>
   <v>       0.09870000       0.59683600       0.84371100 </v>
   <v>       0.59870000       0.09683600       0.34371100 </v>
   <v>       0.59870000       0.09683600       0.84371100 </v>
   <v>       0.59870000       0.59683600       0.34371100 </v>
   <v>       0.59870000       0.59683600       0.84371100 </v>
   <v>       0.09870000       0.34371100       0.09683600 </v>
   <v>       0.09870000       0.34371100       0.59683600 </v>
   <v>       0.09870000       0.84371100       0.09683600 </v>
   <v>       0.09870000       0.84371100       0.59683600 </v>
   <v>       0.59870000       0.34371100       0.09683600 </v>
   <v>       0.59870000       0.34371100       0.59683600 </v>
   <v>       0.59870000       0.84371100       0.09683600 </v>
   <v>       0.59870000       0.84371100       0.59683600 </v>
   <v>       0.49444700       0.49739900       0.33679800 </v>
   <v>       0.49444700       0.49739900       0.83679800 </v>
   <v>       0.49444700       0.99739900       0.33679800 </v>
   <v>       0.49444700       0.99739900       0.83679800 </v>
   <v>       0.99444700       0.49739900       0.33679800 </v>
   <v>       0.99444700       0.49739900       0.83679800 </v>
   <v>       0.99444700       0.99739900       0.33679800 </v>
   <v>       0.99444700       0.99739900       0.83679800 </v>
   <v>       0.49444700       0.33679800       0.49739900 </v>
   <v>       0.49444700       0.33679800       0.99739900 </v>
   <v>       0.49444700       0.83679800       0.49739900 </v>
   <v>       0.49444700       0.83679800       0.99739900 </v>
   <v>       0.99444700       0.33679800       0.49739900 </v>
   <v>       0.99444700       0.33679800       0.99739900 </v>
   <v>       0.99444700       0.83679800       0.49739900 </v>
   <v>       0.99444700       0.83679800       0.99739900 </v>
   <v>       0.17079500       0.00295000       0.00295000 </v>
   <v>       0.17079500       0.00295000       0.50295000 </v>
   <v>       0.17079500       0.50295000       0.00295000 </v>
   <v>       0.17079500       0.50295000       0.50295000 </v>
   <v>       0.67079500       0.00295000       0.00295000 </v>
   <v>       0.67079500       0.00295000       0.50295000 </v>
   <v>       0.67079500       0.50295000       0.00295000 </v>
   <v>       0.67079500       0.50295000       0.50295000 </v>
   <v>       0.00347500       0.00275500       0.16436200 </v>
   <v>       0.00347500       0.00275500       0.66436200 </v>
   <v>       0.00347500       0.50275500       0.16436200 </v>
   <v>       0.00347500       0.50275500       0.66436200 </v>
   <v>       0.50347500       0.00275500       0.16436200 </v>
   <v>       0.50347500       0.00275500       0.66436200 </v>
   <v>       0.50347500       0.50275500       0.16436200 </v>
   <v>       0.50347500       0.50275500       0.66436200 </v>
   <v>       0.00347500       0.16436200       0.00275500 </v>
   <v>       0.00347500       0.16436200       0.50275500 </v>
   <v>       0.00347500       0.66436200       0.00275500 </v>
   <v>       0.00347500       0.66436200       0.50275500 </v>
   <v>       0.50347500       0.16436200       0.00275500 </v>
   <v>       0.50347500       0.16436200       0.50275500 </v>
   <v>       0.50347500       0.66436200       0.00275500 </v>
   <v>       0.50347500       0.66436200       0.50275500 </v>
   <v>       0.24799500       0.24900900       0.24900900 </v>
   <v>       0.24799500       0.24900900       0.74900900 </v>
   <v>       0.24799500       0.74900900       0.24900900 </v>
   <v>       0.24799500       0.74900900       0.74900900 </v>
   <v>       0.74799500       0.24900900       0.24900900 </v>
   <v>       0.74799500       0.24900900       0.74900900 </v>
   <v>       0.74799500       0.74900900       0.24900900 </v>
   <v>       0.74799500       0.74900900       0.74900900 </v>
   <v>       0.33833600       0.49792800       0.49792800 </v>
   <v>       0.33833600       0.49792800       0.99792800 </v>
   <v>       0.33833600       0.99792800       0.49792800 </v>
   <v>       0.33833600       0.99792800       0.99792800 </v>
   <v>       0.83833600       0.49792800       0.49792800 </v>
   <v>       0.83833600       0.49792800       0.99792800 </v>
   <v>       0.83833600       0.99792800       0.49792800 </v>
   <v>       0.83833600       0.99792800       0.99792800 </v>
   <v>       0.30608800       0.30943700       0.30943700 </v>
   <v>       0.30608800       0.30943700       0.80943700 </v>
   <v>       0.30608800       0.80943700       0.30943700 </v>
   <v>       0.30608800       0.80943700       0.80943700 </v>
   <v>       0.80608800       0.30943700       0.30943700 </v>
   <v>       0.80608800       0.30943700       0.80943700 </v>
   <v>       0.80608800       0.80943700       0.30943700 </v>
   <v>       0.80608800       0.80943700       0.80943700 </v>
   <v>       0.19098900       0.18883500       0.18883500 </v>
   <v>       0.19098900       0.18883500       0.68883500 </v>
   <v>       0.19098900       0.68883500       0.18883500 </v>
   <v>       0.19098900       0.68883500       0.68883500 </v>
   <v>       0.69098900       0.18883500       0.18883500 </v>
   <v>       0.69098900       0.18883500       0.68883500 </v>
   <v>       0.69098900       0.68883500       0.18883500 </v>
   <v>       0.69098900       0.68883500       0.68883500 </v>
  </varray>
 </structure>
 <calculation>
  <scstep>
   <time name="dav">    6.91    6.92</time>
   <time name="total">    7.22    7.23</time>
   <energy>
    <i name="alphaZ">   1204.07652892 </i>
    <i name="ewald"> -11641.32042334 </i>
    <i name="hartreedc">  -1107.15467597 </i>
    <i name="XCdc">   1020.09802499 </i>
    <i name="pawpsdc">   6780.51620165 </i>
    <i name="pawaedc">  -6712.07122612 </i>
    <i name="eentropy">      0.00000000 </i>
    <i name="bandstr">   1644.16782669 </i>
    <i name="atom">  10363.97701633 </i>
    <i name="e_fr_energy">   1552.28927315 </i>
    <i name="e_wo_entrp">   1552.28927315 </i>
    <i name="e_0_energy">   1552.28927315 </i>
   </energy>
  </scstep>
  <scstep>
   <time name="dav">    7.93    7.92</time>
   <time name="total">    7.95    7.95</time>
   <energy>
    <i name="e_fr_energy">   -757.70559464 </i>
    <i name="e_wo_entrp">   -757.70559464 </i>
    <i name="e_0_energy">   -757.70559464 </i>
   </energy>
  </scstep>
  <scstep>
   <time name="dav">    7.91    7.93</time>
   <time name="total">    7.93    7.96</time>
   <energy>
    <i name="e_fr_energy">   -910.02553590 </i>
    <i name="e_wo_entrp">   -910.02553590 </i>
    <i name="e_0_energy">   -910.02553590 </i>
   </energy>
  </scstep>
  <scstep>
   <time name="dav">    7.91    7.93</time>
   <time name="total">    7.93    7.96</time>
   <energy>
    <i name="e_fr_energy">   -913.88863502 </i>
    <i name="e_wo_entrp">   -913.88863502 </i>
    <i name="e_0_energy">   -913.88863502 </i>
   </energy>
  </scstep>
  <scstep>
   <time name="dav">    7.83    7.86</time>
   <time name="total">    9.60    9.63</time>
   <energy>
    <i name="e_fr_energy">   -914.00416300 </i>
    <i name="e_wo_entrp">   -914.00416300 </i>
    <i name="e_0_energy">   -914.00416300 </i>
   </energy>
  </scstep>
  <scstep>
   <time name="diag">    1.49    1.49</time>
   <time name="diis">    6.20    6.14</time>
   <time name="orth">    0.04    0.04</time>
   <time name="total">    9.74    9.70</time>
   <energy>
    <i name="e_fr_energy">   -861.20692504 </i>
    <i name="e_wo_entrp">   -861.20692504 </i>
    <i name="e_0_energy">   -861.20692504 </i>
   </energy>
  </scstep>
  <scstep>
   <time name="diag">    1.49    1.49</time>
   <time name="diis">    6.20    6.14</time>
   <time name="orth">    0.04    0.04</time>
   <time name="total">    9.74    9.67</time>
   <energy>
    <i name="e_fr_energy">   -853.77547404 </i>
    <i name="e_wo_entrp">   -853.77547404 </i>
    <i name="e_0_energy">   -853.77547404 </i>
   </energy>
  </scstep>
  <scstep>
   <time name="diag">    1.49    1.49</time>
   <time name="diis">    6.17    6.12</time>
   <time name="orth">    0.04    0.04</time>
   <time name="total">    9.70    9.64</time>
   <energy>
    <i name="e_fr_energy">   -853.57415860 </i>
    <i name="e_wo_entrp">   -853.57415860 </i>
    <i name="e_0_energy">   -853.57415860 </i>
   </energy>
  </scstep>
  <scstep>
   <time name="diag">    1.49    1.49</time>
   <time name="diis">    6.21    6.15</time>
   <time name="orth">    0.04    0.04</time>
   <time name="total">    9.73    9.67</time>
   <energy>
    <i name="e_fr_energy">   -852.71687059 </i>
    <i name="e_wo_entrp">   -852.71687059 </i>
    <i name="e_0_energy">   -852.71687059 </i>
   </energy>
  </scstep>
  <scstep>
   <time name="diag">    1.49    1.49</time>
   <time name="diis">    6.43    6.38</time>
   <time name="orth">    0.04    0.04</time>
   <time name="total">    9.97    9.92</time>
   <energy>
    <i name="e_fr_energy">   -852.73233530 </i>
    <i name="e_wo_entrp">   -852.73233530 </i>
    <i name="e_0_energy">   -852.73233530 </i>
   </energy>
  </scstep>
  <scstep>
   <time name="diag">    1.49    1.50</time>
   <time name="diis">    6.16    6.12</time>
   <time name="orth">    0.04    0.04</time>
   <time name="total">    9.70    9.68</time>
   <energy>
    <i name="e_fr_energy">   -852.71125041 </i>
    <i name="e_wo_entrp">   -852.71125041 </i>
    <i name="e_0_energy">   -852.71125041 </i>
   </energy>
  </scstep>
  <scstep>
   <time name="diag">    1.49    1.49</time>
   <time name="diis">    6.28    6.21</time>
   <time name="orth">    0.04    0.04</time>
   <time name="total">    9.82    9.75</time>
   <energy>
    <i name="e_fr_energy">   -852.71304075 </i>
    <i name="e_wo_entrp">   -852.71304075 </i>
    <i name="e_0_energy">   -852.71304075 </i>
   </energy>
  </scstep>
  <scstep>
   <time name="diag">    1.49    1.49</time>
   <time name="diis">    6.43    6.35</time>
   <time name="orth">    0.04    0.04</time>
   <time name="total">    9.97    9.89</time>
   <energy>
    <i name="e_fr_energy">   -852.71276613 </i>
    <i name="e_wo_entrp">   -852.71276613 </i>
    <i name="e_0_energy">   -852.71276613 </i>
   </energy>
  </scstep>
  <scstep>
   <time name="diag">    1.48    1.49</time>
   <time name="diis">    6.34    6.28</time>
   <time name="orth">    0.04    0.04</time>
   <time name="total">    9.86    9.82</time>
   <energy>
    <i name="e_fr_energy">   -852.71282899 </i>
    <i name="e_wo_entrp">   -852.71282899 </i>
    <i name="e_0_energy">   -852.71282899 </i>
   </energy>
  </scstep>
  <scstep>
   <time name="diag">    1.49    1.49</time>
   <time name="diis">    6.73    6.63</time>
   <time name="orth">    0.04    0.04</time>
   <time name="total">   10.24   10.16</time>
   <energy>
    <i name="e_fr_energy">   -852.71284605 </i>
    <i name="e_wo_entrp">   -852.71284605 </i>
    <i name="e_0_energy">   -852.71284605 </i>
   </energy>
  </scstep>
  <scstep>
   <time name="diag">    1.49    1.49</time>
   <time name="diis">    6.42    6.34</time>
   <time name="orth">    0.04    0.04</time>
   <time name="total">    9.96    9.87</time>
   <energy>
    <i name="e_fr_energy">   -852.71284686 </i>
    <i name="e_wo_entrp">   -852.71284686 </i>
    <i name="e_0_energy">   -852.71284686 </i>
   </energy>
  </scstep>
  <scstep>
   <time name="diag">    1.49    1.49</time>
   <time name="diis">    5.82    5.78</time>
   <time name="orth">    0.04    0.04</time>
   <time name="total">    7.62    7.59</time>
   <energy>
    <i name="alphaZ">   1204.07652892 </i>
    <i name="ewald"> -11641.32042334 </i>
    <i name="hartreedc">  -1573.00310008 </i>
    <i name="XCdc">   1053.63121999 </i>
    <i name="pawpsdc">  36687.97201225 </i>
    <i name="pawaedc"> -36630.43320675 </i>
    <i name="eentropy">      0.00000000 </i>
    <i name="bandstr">   -317.61289478 </i>
    <i name="atom">  10363.97701633 </i>
    <i name="e_fr_energy">   -852.71284746 </i>
    <i name="e_wo_entrp">   -852.71284746 </i>
    <i name="e_0_energy">   -852.71284746 </i>
   </energy>
  </scstep>
  <structure>
   <crystal>
    <varray name="basis" >
     <v>       9.23908700       0.80459400       4.12268700 </v>
     <v>       2.67674700       9.87102300       4.21584500 </v>
     <v>      -0.05144400       1.94548500      10.23806400 </v>
    </varray>
    <i name="volume">    859.26447427 </i>
    <varray name="rec_basis" >
     <v>       0.10806720      -0.03214562       0.00665147 </v>
     <v>      -0.00025238       0.11032977      -0.02096665 </v>
     <v>      -0.04341282      -0.03248728       0.10362996 </v>
    </varray>
   </crystal>
   <varray name="positions" >
    <v>       0.15792300       0.40375800       0.40375800 </v>
    <v>       0.15792300       0.40375800       0.90375800 </v>
    <v>       0.15792300       0.90375800       0.40375800 </v>
    <v>       0.15792300       0.90375800       0.90375800 </v>
    <v>       0.65792300       0.40375800       0.40375800 </v>
    <v>       0.65792300       0.40375800       0.90375800 </v>
    <v>       0.65792300       0.90375800       0.40375800 </v>
    <v>       0.65792300       0.90375800       0.90375800 </v>
    <v>       0.40163200       0.40233800       0.15722000 </v>
    <v>       0.40163200       0.40233800       0.65722000 </v>
    <v>       0.40163200       0.90233800       0.15722000 </v>
    <v>       0.40163200       0.90233800       0.65722000 </v>
    <v>       0.90163200       0.40233800       0.15722000 </v>
    <v>       0.90163200       0.40233800       0.65722000 </v>
    <v>       0.90163200       0.90233800       0.15722000 </v>
    <v>       0.90163200       0.90233800       0.65722000 </v>
    <v>       0.40163200       0.15722000       0.40233800 </v>
    <v>       0.40163200       0.15722000       0.90233800 </v>
    <v>       0.40163200       0.65722000       0.40233800 </v>
    <v>       0.40163200       0.65722000       0.90233800 </v>
    <v>       0.90163200       0.15722000       0.40233800 </v>
    <v>       0.90163200       0.15722000       0.90233800 </v>
    <v>       0.90163200       0.65722000       0.40233800 </v>
    <v>       0.90163200       0.65722000       0.90233800 </v>
    <v>       0.34136600       0.09666500       0.09666500 </v>
    <v>       0.34136600       0.09666500       0.59666500 </v>
    <v>       0.34136600       0.59666500       0.09666500 </v>
    <v>       0.34136600       0.59666500       0.59666500 </v>
    <v>       0.84136600       0.09666500       0.09666500 </v>
    <v>       0.84136600       0.09666500       0.59666500 </v>
    <v>       0.84136600       0.59666500       0.09666500 </v>
    <v>       0.84136600       0.59666500       0.59666500 </v>
    <v>       0.09870000       0.09683600       0.34371100 </v>
    <v>       0.09870000       0.09683600       0.84371100 </v>
    <v>       0.09870000       0.59683600       0.34371100 </v>
    <v>       0.09870000       0.59683600       0.84371100 </v>
    <v>       0.59870000       0.09683600       0.34371100 </v>
    <v>       0.59870000       0.09683600       0.84371100 </v>
    <v>       0.59870000       0.59683600       0.34371100 </v>
    <v>       0.59870000       0.59683600       0.84371100 </v>
    <v>       0.09870000       0.34371100       0.09683600 </v>
    <v>       0.09870000       0.34371100       0.59683600 </v>
    <v>       0.09870000       0.84371100       0.09683600 </v>
    <v>       0.09870000       0.84371100       0.59683600 </v>
    <v>       0.59870000       0.34371100       0.09683600 </v>
    <v>       0.59870000       0.34371100       0.59683600 </v>
    <v>       0.59870000       0.84371100       0.09683600 </v>
    <v>       0.59870000       0.84371100       0.59683600 </v>
    <v>       0.49444700       0.49739900       0.33679800 </v>
    <v>       0.49444700       0.49739900       0.83679800 </v>
    <v>       0.49444700       0.99739900       0.33679800 </v>
    <v>       0.49444700       0.99739900       0.83679800 </v>
    <v>       0.99444700       0.49739900       0.33679800 </v>
    <v>       0.99444700       0.49739900       0.83679800 </v>
    <v>       0.99444700       0.99739900       0.33679800 </v>
    <v>       0.99444700       0.99739900       0.83679800 </v>
    <v>       0.49444700       0.33679800       0.49739900 </v>
    <v>       0.49444700       0.33679800       0.99739900 </v>
    <v>       0.49444700       0.83679800       0.49739900 </v>
    <v>       0.49444700       0.83679800       0.99739900 </v>
    <v>       0.99444700       0.33679800       0.49739900 </v>
    <v>       0.99444700       0.33679800       0.99739900 </v>
    <v>       0.99444700       0.83679800       0.49739900 </v>
    <v>       0.99444700       0.83679800       0.99739900 </v>
    <v>       0.17079500       0.00295000       0.00295000 </v>
    <v>       0.17079500       0.00295000       0.50295000 </v>
    <v>       0.17079500       0.50295000       0.00295000 </v>
    <v>       0.17079500       0.50295000       0.50295000 </v>
    <v>       0.67079500       0.00295000       0.00295000 </v>
    <v>       0.67079500       0.00295000       0.50295000 </v>
    <v>       0.67079500       0.50295000       0.00295000 </v>
    <v>       0.67079500       0.50295000       0.50295000 </v>
    <v>       0.00347500       0.00275500       0.16436200 </v>
    <v>       0.00347500       0.00275500       0.66436200 </v>
    <v>       0.00347500       0.50275500       0.16436200 </v>
    <v>       0.00347500       0.50275500       0.66436200 </v>
    <v>       0.50347500       0.00275500       0.16436200 </v>
    <v>       0.50347500       0.00275500       0.66436200 </v>
    <v>       0.50347500       0.50275500       0.16436200 </v>
    <v>       0.50347500       0.50275500       0.66436200 </v>
    <v>       0.00347500       0.16436200       0.00275500 </v>
    <v>       0.00347500       0.16436200       0.50275500 </v>
    <v>       0.00347500       0.66436200       0.00275500 </v>
    <v>       0.00347500       0.66436200       0.50275500 </v>
    <v>       0.50347500       0.16436200       0.00275500 </v>
    <v>       0.50347500       0.16436200       0.50275500 </v>
    <v>       0.50347500       0.66436200       0.00275500 </v>
    <v>       0.50347500       0.66436200       0.50275500 </v>
    <v>       0.24799500       0.24900900       0.24900900 </v>
    <v>       0.24799500       0.24900900       0.74900900 </v>
    <v>       0.24799500       0.74900900       0.24900900 </v>
    <v>       0.24799500       0.74900900       0.74900900 </v>
    <v>       0.74799500       0.24900900       0.24900900 </v>
    <v>       0.74799500       0.24900900       0.74900900 </v>
    <v>       0.74799500       0.74900900       0.24900900 </v>
    <v>       0.74799500       0.74900900       0.74900900 </v>
    <v>       0.33833600       0.49792800       0.49792800 </v>
    <v>       0.33833600       0.49792800       0.99792800 </v>
    <v>       0.33833600       0.99792800       0.49792800 </v>
    <v>       0.33833600       0.99792800       0.99792800 </v>
    <v>       0.83833600       0.49792800       0.49792800 </v>
    <v>       0.83833600       0.49792800       0.99792800 </v>
    <v>       0.83833600       0.99792800       0.49792800 </v>
    <v>       0.83833600       0.99792800       0.99792800 </v>
    <v>       0.30608800       0.30943700       0.30943700 </v>
    <v>       0.30608800       0.30943700       0.80943700 </v>
    <v>       0.30608800       0.80943700       0.30943700 </v>
    <v>       0.30608800       0.80943700       0.80943700 </v>
    <v>       0.80608800       0.30943700       0.30943700 </v>
    <v>       0.80608800       0.30943700       0.80943700 </v>
    <v>       0.80608800       0.80943700       0.30943700 </v>
    <v>       0.80608800       0.80943700       0.80943700 </v>
    <v>       0.19098900       0.18883500       0.18883500 </v>
    <v>       0.19098900       0.18883500       0.68883500 </v>
    <v>       0.19098900       0.68883500       0.18883500 </v>
    <v>       0.19098900       0.68883500       0.68883500 </v>
    <v>       0.69098900       0.18883500       0.18883500 </v>
    <v>       0.69098900       0.18883500       0.68883500 </v>
    <v>       0.69098900       0.68883500       0.18883500 </v>
    <v>       0.69098900       0.68883500       0.68883500 </v>
   </varray>
  </structure>
  <varray name="forces" >
   <v>       0.99070967       0.04980395      -0.20205973 </v>
   <v>       0.99070967       0.04980395      -0.20205973 </v>
   <v>       0.99070967       0.04980395      -0.20205973 </v>
   <v>       0.99070967       0.04980395      -0.20205973 </v>
   <v>       0.99070967       0.04980395      -0.20205973 </v>
   <v>       0.99070967       0.04980395      -0.20205973 </v>
   <v>       0.99070967       0.04980395      -0.20205973 </v>
   <v>       0.99070967       0.04980395      -0.20205973 </v>
   <v>       0.43356053      -0.17575717       0.36391939 </v>
   <v>       0.43356053      -0.17575717       0.36391939 </v>
   <v>       0.43356053      -0.17575717       0.36391939 </v>
   <v>       0.43356053      -0.17575717       0.36391939 </v>
   <v>       0.43356053      -0.17575717       0.36391939 </v>
   <v>       0.43356053      -0.17575717       0.36391939 </v>
   <v>       0.43356053      -0.17575717       0.36391939 </v>
   <v>       0.43356053      -0.17575717       0.36391939 </v>
   <v>       0.48846862      -0.90984020      -0.77757327 </v>
   <v>       0.48846862      -0.90984020      -0.77757327 </v>
   <v>       0.48846862      -0.90984020      -0.77757327 </v>
   <v>       0.48846862      -0.90984020      -0.77757327 </v>
   <v>       0.48846862      -0.90984020      -0.77757327 </v>
   <v>       0.48846862      -0.90984020      -0.77757327 </v>
   <v>       0.48846862      -0.90984020      -0.77757327 </v>
   <v>       0.48846862      -0.90984020      -0.77757327 </v>
   <v>      -1.06312029       0.34316847       0.57415844 </v>
   <v>      -1.06312029       0.34316847       0.57415844 </v>
   <v>      -1.06312029       0.34316847       0.57415844 </v>
   <v>      -1.06312029       0.34316847       0.57415844 </v>
   <v>      -1.06312029       0.34316847       0.57415844 </v>
   <v>      -1.06312029       0.34316847       0.57415844 </v>
   <v>      -1.06312029       0.34316847       0.57415844 </v>
   <v>      -1.06312029       0.34316847       0.57415844 </v>
   <v>      -0.63650228       0.24580595      -0.84641507 </v>
   <v>      -0.63650228       0.24580595      -0.84641507 </v>
   <v>      -0.63650228       0.24580595      -0.84641507 </v>
   <v>      -0.63650228       0.24580595      -0.84641507 </v>
   <v>      -0.63650228       0.24580595      -0.84641507 </v>
   <v>      -0.63650228       0.24580595      -0.84641507 </v>
   <v>      -0.63650228       0.24580595      -0.84641507 </v>
   <v>      -0.63650228       0.24580595      -0.84641507 </v>
   <v>      -0.48260337       0.73583611       0.82901855 </v>
   <v>      -0.48260337       0.73583611       0.82901855 </v>
   <v>      -0.48260337       0.73583611       0.82901855 </v>
   <v>      -0.48260337       0.73583611       0.82901855 </v>
   <v>      -0.48260337       0.73583611       0.82901855 </v>
   <v>      -0.48260337       0.73583611       0.82901855 </v>
   <v>      -0.48260337       0.73583611       0.82901855 </v>
   <v>      -0.48260337       0.73583611       0.82901855 </v>
   <v>       0.06134302       1.96530404      -0.94770405 </v>
   <v>       0.06134302       1.96530404      -0.94770405 </v>
   <v>       0.06134302       1.96530404      -0.94770405 </v>
   <v>       0.06134302       1.96530404      -0.94770405 </v>
   <v>       0.06134302       1.96530404      -0.94770405 </v>
   <v>       0.06134302       1.96530404      -0.94770405 </v>
   <v>       0.06134302       1.96530404      -0.94770405 </v>
   <v>       0.06134302       1.96530404      -0.94770405 </v>
   <v>      -0.26527142      -0.44516052       1.28443819 </v>
   <v>      -0.26527142      -0.44516052       1.28443819 </v>
   <v>      -0.26527142      -0.44516052       1.28443819 </v>
   <v>      -0.26527142      -0.44516052       1.28443819 </v>
   <v>      -0.26527142      -0.44516052       1.28443819 </v>
   <v>      -0.26527142      -0.44516052       1.28443819 </v>
   <v>      -0.26527142      -0.44516052       1.28443819 </v>
   <v>      -0.26527142      -0.44516052       1.28443819 </v>
   <v>      -0.10391723      -0.50215267       0.70121874 </v>
   <v>      -0.10391723      -0.50215267       0.70121874 </v>
   <v>      -0.10391723      -0.50215267       0.70121874 </v>
   <v>      -0.10391723      -0.50215267       0.70121874 </v>
   <v>      -0.10391723      -0.50215267       0.70121874 </v>
   <v>      -0.10391723      -0.50215267       0.70121874 </v>
   <v>      -0.10391723      -0.50215267       0.70121874 </v>
   <v>      -0.10391723      -0.50215267       0.70121874 </v>
   <v>       0.01328042      -1.81804237       1.05455394 </v>
   <v>       0.01328042      -1.81804237       1.05455394 </v>
   <v>       0.01328042      -1.81804237       1.05455394 </v>
   <v>       0.01328042      -1.81804237       1.05455394 </v>
   <v>       0.01328042      -1.81804237       1.05455394 </v>
   <v>       0.01328042      -1.81804237       1.05455394 </v>
   <v>       0.01328042      -1.81804237       1.05455394 </v>
   <v>       0.01328042      -1.81804237       1.05455394 </v>
   <v>       0.40373371       0.24072098      -1.07688195 </v>
   <v>       0.40373371       0.24072098      -1.07688195 </v>
   <v>       0.40373371       0.24072098      -1.07688195 </v>
   <v>       0.40373371       0.24072098      -1.07688195 </v>
   <v>       0.40373371       0.24072098      -1.07688195 </v>
   <v>       0.40373371       0.24072098      -1.07688195 </v>
   <v>       0.40373371       0.24072098      -1.07688195 </v>
   <v>       0.40373371       0.24072098      -1.07688195 </v>
   <v>      -0.05448001       0.23157333      -0.06231050 </v>
   <v>      -0.05448001       0.23157333      -0.06231050 </v>
   <v>      -0.05448001       0.23157333      -0.06231050 </v>
   <v>      -0.05448001       0.23157333      -0.06231050 </v>
   <v>      -0.05448001       0.23157333      -0.06231050 </v>
   <v>      -0.05448001       0.23157333      -0.06231050 </v>
   <v>      -0.05448001       0.23157333      -0.06231050 </v>
   <v>      -0.05448001       0.23157333      -0.06231050 </v>
   <v>       0.29713655       0.48575686      -0.45107277 </v>
   <v>       0.29713655       0.48575686      -0.45107277 </v>
   <v>       0.29713655       0.48575686      -0.45107277 </v>
   <v>       0.29713655       0.48575686      -0.45107277 </v>
   <v>       0.29713655       0.48575686      -0.45107277 </v>
   <v>       0.29713655       0.48575686      -0.45107277 </v>
   <v>       0.29713655       0.48575686      -0.45107277 </v>
   <v>       0.29713655       0.48575686      -0.45107277 </v>
   <v>      -3.28788012       1.15173679      -1.54848591 </v>
   <v>      -3.28788012       1.15173679      -1.54848591 </v>
   <v>      -3.28788012       1.15173679      -1.54848591 </v>
   <v>      -3.28788012       1.15173679      -1.54848591 </v>
   <v>      -3.28788012       1.15173679      -1.54848591 </v>
   <v>      -3.28788012       1.15173679      -1.54848591 </v>
   <v>      -3.28788012       1.15173679      -1.54848591 </v>
   <v>      -3.28788012       1.15173679      -1.54848591 </v>
   <v>       3.20554221      -1.59875355       1.10519601 </v>
   <v>       3.20554221      -1.59875355       1.10519601 </v>
   <v>       3.20554221      -1.59875355       1.10519601 </v>
   <v>       3.20554221      -1.59875355       1.10519601 </v>
   <v>       3.20554221      -1.59875355       1.10519601 </v>
   <v>       3.20554221      -1.59875355       1.10519601 </v>
   <v>       3.20554221      -1.59875355       1.10519601 </v>
   <v>       3.20554221      -1.59875355       1.10519601 </v>
  </varray>
  <varray name="stress" >
   <v>      -7.33378919       2.22368961     -41.39350880 </v>
   <v>       2.22368962      60.58515844    -497.11062136 </v>
   <v>     -41.39350879    -497.11062137     162.40151109 </v>
  </varray>
  <energy>
   <i name="e_fr_energy">   -852.71284746 </i>
   <i name="e_wo_entrp">   -852.71284746 </i>
   <i name="e_0_energy">   -852.71284746 </i>
  </energy>
  <time name="totalsc">  180.23  179.71</time>
 </calculation>
 <calculation>
  <scstep>
   <time name="dav">    7.28    7.29</time>
   <time name="total">    9.27    9.29</time>
   <energy>
    <i name="alphaZ">   1204.07652892 </i>
    <i name="ewald"> -11599.47260921 </i>
    <i name="hartreedc">  -1500.30881052 </i>
    <i name="XCdc">   1053.02478456 </i>
    <i name="pawpsdc">  36687.95543666 </i>
    <i name="pawaedc"> -36630.41671419 </i>
    <i name="eentropy">      0.00000000 </i>
    <i name="bandstr">   -458.23975106 </i>
    <i name="atom">  10363.97701633 </i>
    <i name="e_fr_energy">   -879.40411851 </i>
    <i name="e_wo_entrp">   -879.40411851 </i>
    <i name="e_0_energy">   -879.40411851 </i>
   </energy>
  </scstep>
  <scstep>
   <time name="diag">    1.49    1.49</time>
   <time name="diis">    6.21    6.14</time>
   <time name="orth">    0.04    0.04</time>
   <time name="total">    9.71    9.66</time>
   <energy>
    <i name="e_fr_energy">   -864.04558348 </i>
    <i name="e_wo_entrp">   -864.04558348 </i>
    <i name="e_0_energy">   -864.04558348 </i>
   </energy>
  </scstep>
  <scstep>
   <time name="diag">    1.49    1.49</time>
   <time name="diis">    6.19    6.14</time>
   <time name="orth">    0.04    0.04</time>
   <time name="total">    9.71    9.67</time>
   <energy>
    <i name="e_fr_energy">   -856.48552515 </i>
    <i name="e_wo_entrp">   -856.48552515 </i>
    <i name="e_0_energy">   -856.48552515 </i>
   </energy>
  </scstep>
  <scstep>
   <time name="diag">    1.48    1.48</time>
   <time name="diis">    6.18    6.12</time>
   <time name="orth">    0.04    0.04</time>
   <time name="total">    9.70    9.64</time>
   <energy>
    <i name="e_fr_energy">   -854.87558864 </i>
    <i name="e_wo_entrp">   -854.87558864 </i>
    <i name="e_0_energy">   -854.87558864 </i>
   </energy>
  </scstep>
  <scstep>
   <time name="diag">    1.48    1.48</time>
   <time name="diis">    6.36    6.29</time>
   <time name="orth">    0.04    0.04</time>
   <time name="total">    9.87    9.80</time>
   <energy>
    <i name="e_fr_energy">   -854.90770790 </i>
    <i name="e_wo_entrp">   -854.90770790 </i>
    <i name="e_0_energy">   -854.90770790 </i>
   </energy>
  </scstep>
  <scstep>
   <time name="diag">    1.48    1.50</time>
   <time name="diis">    6.34    6.25</time>
   <time name="orth">    0.04    0.04</time>
   <time name="total">    9.85    9.78</time>
   <energy>
    <i name="e_fr_energy">   -854.91821728 </i>
    <i name="e_wo_entrp">   -854.91821728 </i>
    <i name="e_0_energy">   -854.91821728 </i>
   </energy>
  </scstep>
  <scstep>
   <time name="diag">    1.49    1.49</time>
   <time name="diis">    6.43    6.36</time>
   <time name="orth">    0.04    0.04</time>
   <time name="total">    9.94    9.88</time>
   <energy>
    <i name="e_fr_energy">   -854.92016336 </i>
    <i name="e_wo_entrp">   -854.92016336 </i>
    <i name="e_0_energy">   -854.92016336 </i>
   </energy>
  </scstep>
  <scstep>
   <time name="diag">    1.48    1.48</time>
   <time name="diis">    6.48    6.39</time>
   <time name="orth">    0.04    0.04</time>
   <time name="total">   10.01    9.94</time>
   <energy>
    <i name="e_fr_energy">   -854.92129194 </i>
    <i name="e_wo_entrp">   -854.92129194 </i>
    <i name="e_0_energy">   -854.92129194 </i>
   </energy>
  </scstep>
  <scstep>
   <time name="diag">    1.47    1.48</time>
   <time name="diis">    6.42    6.37</time>
   <time name="orth">    0.04    0.04</time>
   <time name="total">    9.93    9.89</time>
   <energy>
    <i name="e_fr_energy">   -854.92144141 </i>
    <i name="e_wo_entrp">   -854.92144141 </i>
    <i name="e_0_energy">   -854.92144141 </i>
   </energy>
  </scstep>
  <scstep>
   <time name="diag">    1.49    1.48</time>
   <time name="diis">    6.43    6.36</time>
   <time name="orth">    0.04    0.04</time>
   <time name="total">    9.96    9.89</time>
   <energy>
    <i name="e_fr_energy">   -854.92148204 </i>
    <i name="e_wo_entrp">   -854.92148204 </i>
    <i name="e_0_energy">   -854.92148204 </i>
   </energy>
  </scstep>
  <scstep>
   <time name="diag">    1.48    1.48</time>
   <time name="diis">    6.71    6.63</time>
   <time name="orth">    0.04    0.04</time>
   <time name="total">   10.24   10.16</time>
   <energy>
    <i name="e_fr_energy">   -854.92149360 </i>
    <i name="e_wo_entrp">   -854.92149360 </i>
    <i name="e_0_energy">   -854.92149360 </i>
   </energy>
  </scstep>
  <scstep>
   <time name="diag">    1.48    1.48</time>
   <time name="diis">    5.86    5.82</time>
   <time name="orth">    0.04    0.04</time>
   <time name="total">    9.40    9.35</time>
   <energy>
    <i name="e_fr_energy">   -854.92149532 </i>
    <i name="e_wo_entrp">   -854.92149532 </i>
    <i name="e_0_energy">   -854.92149532 </i>
   </energy>
  </scstep>
  <scstep>
   <time name="diag">    1.48    1.48</time>
   <time name="diis">    5.25    5.21</time>
   <time name="orth">    0.04    0.04</time>
   <time name="total">    7.05    7.01</time>
   <energy>
    <i name="alphaZ">   1204.07652892 </i>
    <i name="ewald"> -11599.47260921 </i>
    <i name="hartreedc">  -1560.15993199 </i>
    <i name="XCdc">   1057.88690090 </i>
    <i name="pawpsdc">  38821.86308809 </i>
    <i name="pawaedc"> -38765.49024269 </i>
    <i name="eentropy">      0.00000000 </i>
    <i name="bandstr">   -377.60224629 </i>
    <i name="atom">  10363.97701633 </i>
    <i name="e_fr_energy">   -854.92149593 </i>
    <i name="e_wo_entrp">   -854.92149593 </i>
    <i name="e_0_energy">   -854.92149593 </i>
   </energy>
  </scstep>
  <structure>
   <crystal>
    <varray name="basis" >
     <v>       9.08045387       0.36662485       4.05032244 </v>
     <v>       2.60835523       9.43336129       3.22889533 </v>
     <v>      -0.14155991       0.84670879      10.27005354 </v>
    </varray>
    <i name="volume">    859.26447427 </i>
    <varray name="rec_basis" >
     <v>       0.10956719      -0.03170739       0.00412434 </v>
     <v>      -0.00039081       0.10919817      -0.00900817 </v>
     <v>      -0.04308844      -0.02182699       0.09857607 </v>
    </varray>
   </crystal>
   <varray name="positions" >
    <v>       0.16294594       0.40421541       0.40059488 </v>
    <v>       0.16294594       0.40421541       0.90059488 </v>
    <v>       0.16294594       0.90421541       0.40059488 </v>
    <v>       0.16294594       0.90421541       0.90059488 </v>
    <v>       0.66294594       0.40421541       0.40059488 </v>
    <v>       0.66294594       0.40421541       0.90059488 </v>
    <v>       0.66294594       0.90421541       0.40059488 </v>
    <v>       0.66294594       0.90421541       0.90059488 </v>
    <v>       0.40428168       0.40102914       0.15840681 </v>
    <v>       0.40428168       0.40102914       0.65840681 </v>
    <v>       0.40428168       0.90102914       0.15840681 </v>
    <v>       0.40428168       0.90102914       0.65840681 </v>
    <v>       0.90428168       0.40102914       0.15840681 </v>
    <v>       0.90428168       0.40102914       0.65840681 </v>
    <v>       0.90428168       0.90102914       0.15840681 </v>
    <v>       0.90428168       0.90102914       0.65840681 </v>
    <v>       0.40534007       0.15315784       0.39885356 </v>
    <v>       0.40534007       0.15315784       0.89885356 </v>
    <v>       0.40534007       0.65315784       0.39885356 </v>
    <v>       0.40534007       0.65315784       0.89885356 </v>
    <v>       0.90534007       0.15315784       0.39885356 </v>
    <v>       0.90534007       0.15315784       0.89885356 </v>
    <v>       0.90534007       0.65315784       0.39885356 </v>
    <v>       0.90534007       0.65315784       0.89885356 </v>
    <v>       0.33547553       0.09792374       0.10122415 </v>
    <v>       0.33547553       0.09792374       0.60122415 </v>
    <v>       0.33547553       0.59792374       0.10122415 </v>
    <v>       0.33547553       0.59792374       0.60122415 </v>
    <v>       0.83547553       0.09792374       0.10122415 </v>
    <v>       0.83547553       0.09792374       0.60122415 </v>
    <v>       0.83547553       0.59792374       0.10122415 </v>
    <v>       0.83547553       0.59792374       0.60122415 </v>
    <v>       0.09472883       0.09900821       0.34042726 </v>
    <v>       0.09472883       0.09900821       0.84042726 </v>
    <v>       0.09472883       0.59900821       0.34042726 </v>
    <v>       0.09472883       0.59900821       0.84042726 </v>
    <v>       0.59472883       0.09900821       0.34042726 </v>
    <v>       0.59472883       0.09900821       0.84042726 </v>
    <v>       0.59472883       0.59900821       0.34042726 </v>
    <v>       0.59472883       0.59900821       0.84042726 </v>
    <v>       0.09530886       0.34679490       0.10083807 </v>
    <v>       0.09530886       0.34679490       0.60083807 </v>
    <v>       0.09530886       0.84679490       0.10083807 </v>
    <v>       0.09530886       0.84679490       0.60083807 </v>
    <v>       0.59530886       0.34679490       0.10083807 </v>
    <v>       0.59530886       0.34679490       0.60083807 </v>
    <v>       0.59530886       0.84679490       0.10083807 </v>
    <v>       0.59530886       0.84679490       0.60083807 </v>
    <v>       0.49141493       0.50881737       0.32885142 </v>
    <v>       0.49141493       0.50881737       0.82885142 </v>
    <v>       0.49141493       0.00881737       0.32885142 </v>
    <v>       0.49141493       0.00881737       0.82885142 </v>
    <v>       0.99141493       0.50881737       0.32885142 </v>
    <v>       0.99141493       0.50881737       0.82885142 </v>
    <v>       0.99141493       0.00881737       0.32885142 </v>
    <v>       0.99141493       0.00881737       0.82885142 </v>
    <v>       0.49416653       0.33313263       0.50507366 </v>
    <v>       0.49416653       0.33313263       0.00507366 </v>
    <v>       0.49416653       0.83313263       0.50507366 </v>
    <v>       0.49416653       0.83313263       0.00507366 </v>
    <v>       0.99416653       0.33313263       0.50507366 </v>
    <v>       0.99416653       0.33313263       0.00507366 </v>
    <v>       0.99416653       0.83313263       0.50507366 </v>
    <v>       0.99416653       0.83313263       0.00507366 </v>
    <v>       0.17125698      -0.00043077       0.00746031 </v>
    <v>       0.17125698      -0.00043077       0.50746031 </v>
    <v>       0.17125698       0.49956923       0.00746031 </v>
    <v>       0.17125698       0.49956923       0.50746031 </v>
    <v>       0.67125698      -0.00043077       0.00746031 </v>
    <v>       0.67125698      -0.00043077       0.50746031 </v>
    <v>       0.67125698       0.49956923       0.00746031 </v>
    <v>       0.67125698       0.49956923       0.50746031 </v>
    <v>       0.00670203      -0.00798854       0.17245568 </v>
    <v>       0.00670203      -0.00798854       0.67245568 </v>
    <v>       0.00670203       0.49201146       0.17245568 </v>
    <v>       0.00670203       0.49201146       0.67245568 </v>
    <v>       0.50670203      -0.00798854       0.17245568 </v>
    <v>       0.50670203      -0.00798854       0.67245568 </v>
    <v>       0.50670203       0.49201146       0.17245568 </v>
    <v>       0.50670203       0.49201146       0.67245568 </v>
    <v>       0.00486098       0.16672760      -0.00385158 </v>
    <v>       0.00486098       0.16672760       0.49614842 </v>
    <v>       0.00486098       0.66672760      -0.00385158 </v>
    <v>       0.00486098       0.66672760       0.49614842 </v>
    <v>       0.50486098       0.16672760      -0.00385158 </v>
    <v>       0.50486098       0.16672760       0.49614842 </v>
    <v>       0.50486098       0.66672760      -0.00385158 </v>
    <v>       0.50486098       0.66672760       0.49614842 </v>
    <v>       0.24733186       0.25030526       0.24844865 </v>
    <v>       0.24733186       0.25030526       0.74844865 </v>
    <v>       0.24733186       0.75030526       0.24844865 </v>
    <v>       0.24733186       0.75030526       0.74844865 </v>
    <v>       0.74733186       0.25030526       0.24844865 </v>
    <v>       0.74733186       0.25030526       0.74844865 </v>
    <v>       0.74733186       0.75030526       0.24844865 </v>
    <v>       0.74733186       0.75030526       0.74844865 </v>
    <v>       0.33898706       0.50096613       0.49428929 </v>
    <v>       0.33898706       0.50096613       0.99428929 </v>
    <v>       0.33898706       0.00096613       0.49428929 </v>
    <v>       0.33898706       0.00096613       0.99428929 </v>
    <v>       0.83898706       0.50096613       0.49428929 </v>
    <v>       0.83898706       0.50096613       0.99428929 </v>
    <v>       0.83898706       0.00096613       0.49428929 </v>
    <v>       0.83898706       0.00096613       0.99428929 </v>
    <v>       0.28666382       0.31717354       0.30677641 </v>
    <v>       0.28666382       0.31717354       0.80677641 </v>
    <v>       0.28666382       0.81717354       0.30677641 </v>
    <v>       0.28666382       0.81717354       0.80677641 </v>
    <v>       0.78666382       0.31717354       0.30677641 </v>
    <v>       0.78666382       0.31717354       0.80677641 </v>
    <v>       0.78666382       0.81717354       0.30677641 </v>
    <v>       0.78666382       0.81717354       0.80677641 </v>
    <v>       0.21053490       0.17916855       0.19015246 </v>
    <v>       0.21053490       0.17916855       0.69015246 </v>
    <v>       0.21053490       0.67916855       0.19015246 </v>
    <v>       0.21053490       0.67916855       0.69015246 </v>
    <v>       0.71053490       0.17916855       0.19015246 </v>
    <v>       0.71053490       0.17916855       0.69015246 </v>
    <v>       0.71053490       0.67916855       0.19015246 </v>
    <v>       0.71053490       0.67916855       0.69015246 </v>
   </varray>
  </structure>
  <varray name="forces" >
   <v>      -3.31191122       2.08141594       1.90639468 </v>
   <v>      -3.31191122       2.08141594       1.90639468 </v>
   <v>      -3.31191122       2.08141594       1.90639468 </v>
   <v>      -3.31191122       2.08141594       1.90639468 </v>
   <v>      -3.31191122       2.08141594       1.90639468 </v>
   <v>      -3.31191122       2.08141594       1.90639468 </v>
   <v>      -3.31191122       2.08141594       1.90639468 </v>
   <v>      -3.31191122       2.08141594       1.90639468 </v>
   <v>      -2.07158518       0.03360213      -0.19916553 </v>
   <v>      -2.07158518       0.03360213      -0.19916553 </v>
   <v>      -2.07158518       0.03360213      -0.19916553 </v>
   <v>      -2.07158518       0.03360213      -0.19916553 </v>
   <v>      -2.07158518       0.03360213      -0.19916553 </v>
   <v>      -2.07158518       0.03360213      -0.19916553 </v>
   <v>      -2.07158518       0.03360213      -0.19916553 </v>
   <v>      -2.07158518       0.03360213      -0.19916553 </v>
   <v>      -2.30910555       2.17496508      -0.03377958 </v>
   <v>      -2.30910555       2.17496508      -0.03377958 </v>
   <v>      -2.30910555       2.17496508      -0.03377958 </v>
   <v>      -2.30910555       2.17496508      -0.03377958 </v>
   <v>      -2.30910555       2.17496508      -0.03377958 </v>
   <v>      -2.30910555       2.17496508      -0.03377958 </v>
   <v>      -2.30910555       2.17496508      -0.03377958 </v>
   <v>      -2.30910555       2.17496508      -0.03377958 </v>
   <v>       4.83053355      -3.44552980      -3.01637107 </v>
   <v>       4.83053355      -3.44552980      -3.01637107 </v>
   <v>       4.83053355      -3.44552980      -3.01637107 </v>
   <v>       4.83053355      -3.44552980      -3.01637107 </v>
   <v>       4.83053355      -3.44552980      -3.01637107 </v>
   <v>       4.83053355      -3.44552980      -3.01637107 </v>
   <v>       4.83053355      -3.44552980      -3.01637107 </v>
   <v>       4.83053355      -3.44552980      -3.01637107 </v>
   <v>       2.30836120      -0.27919639       0.94476414 </v>
   <v>       2.30836120      -0.27919639       0.94476414 </v>
   <v>       2.30836120      -0.27919639       0.94476414 </v>
   <v>       2.30836120      -0.27919639       0.94476414 </v>
   <v>       2.30836120      -0.27919639       0.94476414 </v>
   <v>       2.30836120      -0.27919639       0.94476414 </v>
   <v>       2.30836120      -0.27919639       0.94476414 </v>
   <v>       2.30836120      -0.27919639       0.94476414 </v>
   <v>       2.14231034      -1.83426323      -0.00620388 </v>
   <v>       2.14231034      -1.83426323      -0.00620388 </v>
   <v>       2.14231034      -1.83426323      -0.00620388 </v>
   <v>       2.14231034      -1.83426323      -0.00620388 </v>
   <v>       2.14231034      -1.83426323      -0.00620388 </v>
   <v>       2.14231034      -1.83426323      -0.00620388 </v>
   <v>       2.14231034      -1.83426323      -0.00620388 </v>
   <v>       2.14231034      -1.83426323      -0.00620388 </v>
   <v>      -0.30633927      -2.29401116       1.72830781 </v>
   <v>      -0.30633927      -2.29401116       1.72830781 </v>
   <v>      -0.30633927      -2.29401116       1.72830781 </v>
   <v>      -0.30633927      -2.29401116       1.72830781 </v>
   <v>      -0.30633927      -2.29401116       1.72830781 </v>
   <v>      -0.30633927      -2.29401116       1.72830781 </v>
   <v>      -0.30633927      -2.29401116       1.72830781 </v>
   <v>      -0.30633927      -2.29401116       1.72830781 </v>
   <v>       0.35284863       0.76785508      -1.34847553 </v>
   <v>       0.35284863       0.76785508      -1.34847553 </v>
   <v>       0.35284863       0.76785508      -1.34847553 </v>
   <v>       0.35284863       0.76785508      -1.34847553 </v>
   <v>       0.35284863       0.76785508      -1.34847553 </v>
   <v>       0.35284863       0.76785508      -1.34847553 </v>
   <v>       0.35284863       0.76785508      -1.34847553 </v>
   <v>       0.35284863       0.76785508      -1.34847553 </v>
   <v>      -0.08997750       0.72827090      -0.76801535 </v>
   <v>      -0.08997750       0.72827090      -0.76801535 </v>
   <v>      -0.08997750       0.72827090      -0.76801535 </v>
   <v>      -0.08997750       0.72827090      -0.76801535 </v>
   <v>      -0.08997750       0.72827090      -0.76801535 </v>
   <v>      -0.08997750       0.72827090      -0.76801535 </v>
   <v>      -0.08997750       0.72827090      -0.76801535 </v>
   <v>      -0.08997750       0.72827090      -0.76801535 </v>
   <v>       0.19703672       1.96306950      -1.74824728 </v>
   <v>       0.19703672       1.96306950      -1.74824728 </v>
   <v>       0.19703672       1.96306950      -1.74824728 </v>
   <v>       0.19703672       1.96306950      -1.74824728 </v>
   <v>       0.19703672       1.96306950      -1.74824728 </v>
   <v>       0.19703672       1.96306950      -1.74824728 </v>
   <v>       0.19703672       1.96306950      -1.74824728 </v>
   <v>       0.19703672       1.96306950      -1.74824728 </v>
   <v>      -0.26654541      -0.48729052       1.16709998 </v>
   <v>      -0.26654541      -0.48729052       1.16709998 </v>
   <v>      -0.26654541      -0.48729052       1.16709998 </v>
   <v>      -0.26654541      -0.48729052       1.16709998 </v>
   <v>      -0.26654541      -0.48729052       1.16709998 </v>
   <v>      -0.26654541      -0.48729052       1.16709998 </v>
   <v>      -0.26654541      -0.48729052       1.16709998 </v>
   <v>      -0.26654541      -0.48729052       1.16709998 </v>
   <v>      -0.66972939      -0.62638761      -0.99434456 </v>
   <v>      -0.66972939      -0.62638761      -0.99434456 </v>
   <v>      -0.66972939      -0.62638761      -0.99434456 </v>
   <v>      -0.66972939      -0.62638761      -0.99434456 </v>
   <v>      -0.66972939      -0.62638761      -0.99434456 </v>
   <v>      -0.66972939      -0.62638761      -0.99434456 </v>
   <v>      -0.66972939      -0.62638761      -0.99434456 </v>
   <v>      -0.66972939      -0.62638761      -0.99434456 </v>
   <v>      -0.05227483      -0.55437919       0.61244450 </v>
   <v>      -0.05227483      -0.55437919       0.61244450 </v>
   <v>      -0.05227483      -0.55437919       0.61244450 </v>
   <v>      -0.05227483      -0.55437919       0.61244450 </v>
   <v>      -0.05227483      -0.55437919       0.61244450 </v>
   <v>      -0.05227483      -0.55437919       0.61244450 </v>
   <v>      -0.05227483      -0.55437919       0.61244450 </v>
   <v>      -0.05227483      -0.55437919       0.61244450 </v>
   <v>       6.89519252       0.59596541       4.17842848 </v>
   <v>       6.89519252       0.59596541       4.17842848 </v>
   <v>       6.89519252       0.59596541       4.17842848 </v>
   <v>       6.89519252       0.59596541       4.17842848 </v>
   <v>       6.89519252       0.59596541       4.17842848 </v>
   <v>       6.89519252       0.59596541       4.17842848 </v>
   <v>       6.89519252       0.59596541       4.17842848 </v>
   <v>       6.89519252       0.59596541       4.17842848 </v>
   <v>      -7.64881462       1.17591385      -2.42283680 </v>
   <v>      -7.64881462       1.17591385      -2.42283680 </v>
   <v>      -7.64881462       1.17591385      -2.42283680 </v>
   <v>      -7.64881462       1.17591385      -2.42283680 </v>
   <v>      -7.64881462       1.17591385      -2.42283680 </v>
   <v>      -7.64881462       1.17591385      -2.42283680 </v>
   <v>      -7.64881462       1.17591385      -2.42283680 </v>
   <v>      -7.64881462       1.17591385      -2.42283680 </v>
  </varray>
  <varray name="stress" >
   <v>     150.57505602     -20.65827757      38.40976441 </v>
   <v>     -20.65827753     108.35430425     330.34196820 </v>
   <v>      38.40976435     330.34196822     174.23559984 </v>
  </varray>
  <energy>
   <i name="e_fr_energy">   -854.92149593 </i>
   <i name="e_wo_entrp">   -854.92149593 </i>
   <i name="e_0_energy">   -854.92149593 </i>
  </energy>
  <time name="totalsc">  143.90  143.24</time>
 </calculation>
 <calculation>
  <scstep>
   <time name="dav">    7.20    7.21</time>
   <time name="total">    9.19    9.20</time>
   <energy>
    <i name="alphaZ">   1204.07652892 </i>
    <i name="ewald"> -11691.93841489 </i>
    <i name="hartreedc">  -1541.36902398 </i>
    <i name="XCdc">   1057.25321342 </i>
    <i name="pawpsdc">  38821.77308546 </i>
    <i name="pawaedc"> -38765.40037623 </i>
    <i name="eentropy">      0.00000000 </i>
    <i name="bandstr">   -328.14946460 </i>
    <i name="atom">  10363.97701633 </i>
    <i name="e_fr_energy">   -879.77743557 </i>
    <i name="e_wo_entrp">   -879.77743557 </i>
    <i name="e_0_energy">   -879.77743557 </i>
   </energy>
  </scstep>
  <scstep>
   <time name="diag">    1.48    1.48</time>
   <time name="diis">    6.18    6.13</time>
   <time name="orth">    0.04    0.04</time>
[...]
       <r>    -6.7308    26.0671    52.5433 </r>
       <r>    -6.6430    23.4514    54.6722 </r>
       <r>    -6.5551     4.2573    55.8669 </r>
       <r>    -6.4673    10.7516    56.6290 </r>
       <r>    -6.3795    13.1278    57.6619 </r>
       <r>    -6.2917    16.5537    58.9640 </r>
       <r>    -6.2039    19.8759    60.5649 </r>
       <r>    -6.1161    15.6595    62.2114 </r>
       <r>    -6.0282    10.5500    63.2943 </r>
       <r>    -5.9404     2.5055    63.9560 </r>
       <r>    -5.8526     0.0000    64.0000 </r>
       <r>    -5.7648     6.9471    64.1968 </r>
       <r>    -5.6770    27.4205    65.6500 </r>
       <r>    -5.5892    15.2001    67.5472 </r>
       <r>    -5.5013    11.6497    68.6256 </r>
       <r>    -5.4135    26.5791    70.1529 </r>
       <r>    -5.3257    52.5885    73.9980 </r>
       <r>    -5.2379     4.2051    76.0096 </r>
       <r>    -5.1501    20.5591    77.4073 </r>
       <r>    -5.0623    32.3256    79.7093 </r>
       <r>    -4.9744    31.7047    82.6817 </r>
       <r>    -4.8866    10.4904    84.2316 </r>
       <r>    -4.7988    37.5363    86.5921 </r>
       <r>    -4.7110     9.9672    87.9487 </r>
       <r>    -4.6232    14.7642    89.0627 </r>
       <r>    -4.5354    14.2631    90.3365 </r>
       <r>    -4.4475    20.5365    91.8006 </r>
       <r>    -4.3597    19.1976    93.9411 </r>
       <r>    -4.2719     8.3139    94.9571 </r>
       <r>    -4.1841     4.6225    95.5024 </r>
       <r>    -4.0963     2.4505    95.8079 </r>
       <r>    -4.0084     0.9619    95.9528 </r>
       <r>    -3.9206     0.1570    95.9969 </r>
       <r>    -3.8328     0.0000    96.0000 </r>
       <r>    -3.7450     0.2152    96.0017 </r>
       <r>    -3.6572     5.9465    96.2584 </r>
       <r>    -3.5694     8.7893    96.8943 </r>
       <r>    -3.4815    12.3257    97.8177 </r>
       <r>    -3.3937    12.9135    98.9429 </r>
       <r>    -3.3059    13.8452   100.1097 </r>
       <r>    -3.2181    15.8940   101.4073 </r>
       <r>    -3.1303    19.0601   102.9339 </r>
       <r>    -3.0425    25.9738   104.8475 </r>
       <r>    -2.9546    18.4210   106.9405 </r>
       <r>    -2.8668    17.7539   108.7359 </r>
       <r>    -2.7790    15.2275   109.9569 </r>
       <r>    -2.6912    26.9373   112.3212 </r>
       <r>    -2.6034    33.6328   114.8449 </r>
       <r>    -2.5156    16.2917   116.3993 </r>
       <r>    -2.4277    26.8092   118.1641 </r>
       <r>    -2.3399     9.5858   120.3917 </r>
       <r>    -2.2521    51.4775   121.6769 </r>
       <r>    -2.1643    23.8911   123.9807 </r>
       <r>    -2.0765    33.3468   126.1931 </r>
       <r>    -1.9887    32.9324   129.2779 </r>
       <r>    -1.9008    25.1431   131.8478 </r>
       <r>    -1.8130    32.4498   134.1871 </r>
       <r>    -1.7252    46.5287   137.7907 </r>
       <r>    -1.6374    43.6358   142.0115 </r>
       <r>    -1.5496    26.9706   145.1790 </r>
       <r>    -1.4618    25.1635   147.4688 </r>
       <r>    -1.3739    22.6533   149.5800 </r>
       <r>    -1.2861    12.2152   151.1199 </r>
       <r>    -1.1983    21.5709   151.9577 </r>
       <r>    -1.1105    34.3059   155.2246 </r>
       <r>    -1.0227    50.6395   158.0812 </r>
       <r>    -0.9348    40.1051   162.7629 </r>
       <r>    -0.8470    23.0046   165.4834 </r>
       <r>    -0.7592    21.3505   167.2687 </r>
       <r>    -0.6714    46.7612   169.7142 </r>
       <r>    -0.5836    38.9975   173.7442 </r>
       <r>    -0.4958    23.4482   176.1644 </r>
       <r>    -0.4079    23.8335   178.2072 </r>
       <r>    -0.3201    28.0269   180.4694 </r>
       <r>    -0.2323    25.9286   182.9343 </r>
       <r>    -0.1445    19.1118   184.9033 </r>
       <r>    -0.0567    44.5792   187.4083 </r>
       <r>     0.0311    18.3271   188.5987 </r>
       <r>     0.1190    70.2788   192.7352 </r>
       <r>     0.2068    43.3983   198.3128 </r>
       <r>     0.2946    21.8422   200.7389 </r>
       <r>     0.3824    36.4973   203.2599 </r>
       <r>     0.4702    22.0145   205.7870 </r>
       <r>     0.5580    35.0765   208.4547 </r>
       <r>     0.6459    30.7429   211.3769 </r>
       <r>     0.7337    22.7768   213.5892 </r>
       <r>     0.8215    27.4948   215.7814 </r>
       <r>     0.9093    31.3645   218.2632 </r>
       <r>     0.9971    54.2363   221.7668 </r>
       <r>     1.0849    43.9973   226.1205 </r>
       <r>     1.1728    42.9520   229.9551 </r>
       <r>     1.2606    44.6069   233.8677 </r>
       <r>     1.3484    19.1935   236.8337 </r>
       <r>     1.4362    27.9181   238.4184 </r>
       <r>     1.5240    28.3657   241.5662 </r>
       <r>     1.6118    35.8029   244.3700 </r>
       <r>     1.6997    62.3690   248.2494 </r>
       <r>     1.7875    35.1659   252.1465 </r>
       <r>     1.8753    30.4140   254.6914 </r>
       <r>     1.9631    71.8149   257.9653 </r>
       <r>     2.0509    70.0221   263.1007 </r>
       <r>     2.1388    36.9548   267.6367 </r>
       <r>     2.2266    59.9267   271.3874 </r>
       <r>     2.3144    21.4963   275.0174 </r>
       <r>     2.4022    58.4157   277.3926 </r>
       <r>     2.4900    71.1967   282.1702 </r>
       <r>     2.5778    47.6230   286.8225 </r>
       <r>     2.6657    45.0383   290.8063 </r>
       <r>     2.7535    43.4809   294.9935 </r>
       <r>     2.8413    98.8883   299.6512 </r>
       <r>     2.9291    21.9840   302.3662 </r>
       <r>     3.0169    56.3799   305.9452 </r>
       <r>     3.1047    65.1191   311.3207 </r>
       <r>     3.1926    38.0018   315.6486 </r>
       <r>     3.2804    47.5871   319.6231 </r>
       <r>     3.3682    41.2140   324.3301 </r>
       <r>     3.4560    35.3883   327.4770 </r>
       <r>     3.5438    28.5835   330.2891 </r>
       <r>     3.6316    32.2063   332.9900 </r>
       <r>     3.7195    43.4469   335.7749 </r>
       <r>     3.8073    59.5721   340.6587 </r>
       <r>     3.8951    52.4148   345.5274 </r>
       <r>     3.9829    38.4726   349.3172 </r>
       <r>     4.0707    27.2908   351.5810 </r>
       <r>     4.1585    71.3650   356.5249 </r>
       <r>     4.2464    38.7764   363.7561 </r>
       <r>     4.3342    27.2834   366.1048 </r>
       <r>     4.4220    33.5839   368.5473 </r>
       <r>     4.5098    40.9117   371.8425 </r>
       <r>     4.5976    41.0699   375.5051 </r>
       <r>     4.6854    30.3634   378.6958 </r>
       <r>     4.7733    24.5397   381.1397 </r>
       <r>     4.8611    13.6759   382.8427 </r>
       <r>     4.9489     5.5227   383.6299 </r>
       <r>     5.0367     1.3658   383.9076 </r>
       <r>     5.1245     0.4398   383.9831 </r>
       <r>     5.2124     0.0249   383.9998 </r>
       <r>     5.3002     0.0000   384.0000 </r>
       <r>     5.3880     0.0000   384.0000 </r>
       <r>     5.4758     0.0000   384.0000 </r>
       <r>     5.5636     0.0000   384.0000 </r>
       <r>     5.6514     0.0000   384.0000 </r>
       <r>     5.7393     0.0000   384.0000 </r>
       <r>     5.8271     0.0000   384.0000 </r>
       <r>     5.9149     0.0000   384.0000 </r>
       <r>     6.0027     0.0000   384.0000 </r>
       <r>     6.0905     0.0000   384.0000 </r>
       <r>     6.1783     0.0000   384.0000 </r>
       <r>     6.2662     0.0000   384.0000 </r>
       <r>     6.3540     0.0000   384.0000 </r>
       <r>     6.4418     0.0000   384.0000 </r>
       <r>     6.5296     0.0000   384.0000 </r>
       <r>     6.6174     0.0000   384.0000 </r>
       <r>     6.7052     0.0000   384.0000 </r>
       <r>     6.7931     0.0000   384.0000 </r>
       <r>     6.8809     0.0000   384.0000 </r>
       <r>     6.9687     0.0000   384.0000 </r>
       <r>     7.0565     0.0000   384.0000 </r>
       <r>     7.1443     0.0000   384.0000 </r>
       <r>     7.2321     0.0000   384.0000 </r>
       <r>     7.3200     0.0000   384.0000 </r>
       <r>     7.4078     0.0000   384.0000 </r>
       <r>     7.4956     0.0000   384.0000 </r>
       <r>     7.5834     0.0000   384.0000 </r>
       <r>     7.6712     0.0000   384.0000 </r>
       <r>     7.7590     0.0000   384.0000 </r>
       <r>     7.8469     0.0000   384.0000 </r>
       <r>     7.9347     0.0000   384.0000 </r>
       <r>     8.0225     0.0000   384.0000 </r>
       <r>     8.1103     0.0000   384.0000 </r>
       <r>     8.1981     0.5350   384.0113 </r>
       <r>     8.2860     3.5817   384.1712 </r>
       <r>     8.3738     9.4788   384.7238 </r>
       <r>     8.4616    31.7844   386.4289 </r>
       <r>     8.5494    20.5140   389.0302 </r>
       <r>     8.6372    42.1296   391.9961 </r>
       <r>     8.7250    20.5013   394.3614 </r>
       <r>     8.8129    19.0757   396.1322 </r>
       <r>     8.9007    17.6749   397.6230 </r>
       <r>     8.9885    25.7307   399.5638 </r>
       <r>     9.0763    27.7596   402.1835 </r>
       <r>     9.1641    29.9309   404.7935 </r>
       <r>     9.2519    33.3768   407.4871 </r>
       <r>     9.3398    28.6132   410.3025 </r>
       <r>     9.4276    25.5833   412.5823 </r>
       <r>     9.5154    28.6185   415.0298 </r>
       <r>     9.6032    26.8461   417.4587 </r>
       <r>     9.6910    36.1514   420.0539 </r>
       <r>     9.7788    44.4751   423.8088 </r>
       <r>     9.8667    18.3645   426.6468 </r>
       <r>     9.9545    59.7623   429.7015 </r>
       <r>    10.0423    29.5586   432.7295 </r>
       <r>    10.1301    28.8805   435.2790 </r>
       <r>    10.2179    22.6587   437.1964 </r>
       <r>    10.3057    25.4615   439.5242 </r>
       <r>    10.3936    24.6863   442.0960 </r>
       <r>    10.4814    25.3486   444.2009 </r>
       <r>    10.5692    42.6634   447.0500 </r>
       <r>    10.6570    20.0422   449.7824 </r>
       <r>    10.7448    18.6229   451.3625 </r>
       <r>    10.8327    18.5761   453.0904 </r>
       <r>    10.9205    25.0907   454.9558 </r>
       <r>    11.0083    26.5023   457.4133 </r>
       <r>    11.0961    21.3435   459.4958 </r>
       <r>    11.1839    16.8105   461.2619 </r>
       <r>    11.2717    25.6221   463.0813 </r>
       <r>    11.3596    27.5401   465.4538 </r>
       <r>    11.4474    27.1267   467.8699 </r>
       <r>    11.5352    24.1035   470.1421 </r>
       <r>    11.6230    20.2056   472.0273 </r>
       <r>    11.7108    19.1395   473.7513 </r>
       <r>    11.7986    20.9789   475.4776 </r>
       <r>    11.8865    26.0122   477.5426 </r>
       <r>    11.9743    26.7799   479.8848 </r>
       <r>    12.0621    24.7228   482.1813 </r>
       <r>    12.1499    19.1945   484.0656 </r>
       <r>    12.2377    26.2447   485.8233 </r>
       <r>    12.3255    43.2570   488.1109 </r>
       <r>    12.4134    50.0489   492.3566 </r>
       <r>    12.5012    13.5943   494.9132 </r>
       <r>    12.5890    17.1354   496.0831 </r>
       <r>    12.6768    38.7590   499.0430 </r>
       <r>    12.7646    27.1282   501.6063 </r>
       <r>    12.8524     5.6444   503.9729 </r>
       <r>    12.9403    71.6444   504.9515 </r>
       <r>    13.0281     0.0000   506.0000 </r>
       <r>    13.1159     0.0000   506.0000 </r>
       <r>    13.2037     0.0000   506.0000 </r>
       <r>    13.2915     0.0000   506.0000 </r>
       <r>    13.3793     0.0000   506.0000 </r>
       <r>    13.4672     0.0000   506.0000 </r>
       <r>    13.5550     0.0000   506.0000 </r>
       <r>    13.6428     0.0000   506.0000 </r>
       <r>    13.7306     0.0000   506.0000 </r>
       <r>    13.8184     0.0000   506.0000 </r>
       <r>    13.9063     0.0000   506.0000 </r>
       <r>    13.9941     0.0000   506.0000 </r>
       <r>    14.0819     0.0000   506.0000 </r>
       <r>    14.1697     0.0000   506.0000 </r>
      </set>
     </set>
    </array>
   </total>
  </dos>
 </calculation>
 <structure name="finalpos" >
  <crystal>
   <varray name="basis" >
    <v>       9.16310149       0.42384526       4.12612886 </v>
    <v>       2.62589810       9.41518040       3.44831344 </v>
    <v>      -0.07881493       1.04502568      10.31026976 </v>
   </varray>
   <i name="volume">    859.26447427 </i>
   <varray name="rec_basis" >
    <v>       0.10877847      -0.03182431       0.00405718 </v>
    <v>      -0.00006756       0.11032604      -0.01118292 </v>
    <v>      -0.04351012      -0.02416305       0.09910718 </v>
   </varray>
  </crystal>
  <varray name="positions" >
   <v>       0.15769208       0.40444135       0.40443625 </v>
   <v>       0.15769208       0.40444135       0.90443625 </v>
   <v>       0.15769208       0.90444135       0.40443625 </v>
   <v>       0.15769208       0.90444135       0.90443625 </v>
   <v>       0.65769208       0.40444135       0.40443625 </v>
   <v>       0.65769208       0.40444135       0.90443625 </v>
   <v>       0.65769208       0.90444135       0.40443625 </v>
   <v>       0.65769208       0.90444135       0.90443625 </v>
   <v>       0.40132968       0.40123649       0.15801047 </v>
   <v>       0.40132968       0.40123649       0.65801047 </v>
   <v>       0.40132968       0.90123649       0.15801047 </v>
   <v>       0.40132968       0.90123649       0.65801047 </v>
   <v>       0.90132968       0.40123649       0.15801047 </v>
   <v>       0.90132968       0.40123649       0.65801047 </v>
   <v>       0.90132968       0.90123649       0.15801047 </v>
   <v>       0.90132968       0.90123649       0.65801047 </v>
   <v>       0.40129858       0.15801289       0.40123626 </v>
   <v>       0.40129858       0.15801289       0.90123626 </v>
   <v>       0.40129858       0.65801289       0.40123626 </v>
   <v>       0.40129858       0.65801289       0.90123626 </v>
   <v>       0.90129858       0.15801289       0.40123626 </v>
   <v>       0.90129858       0.15801289       0.90123626 </v>
   <v>       0.90129858       0.65801289       0.40123626 </v>
   <v>       0.90129858       0.65801289       0.90123626 </v>
   <v>       0.34225183       0.09583664       0.09584638 </v>
   <v>       0.34225183       0.09583664       0.59584638 </v>
   <v>       0.34225183       0.59583664       0.09584638 </v>
   <v>       0.34225183       0.59583664       0.59584638 </v>
   <v>       0.84225183       0.09583664       0.09584638 </v>
   <v>       0.84225183       0.09583664       0.59584638 </v>
   <v>       0.84225183       0.59583664       0.09584638 </v>
   <v>       0.84225183       0.59583664       0.59584638 </v>
   <v>       0.09921250       0.09779318       0.34340160 </v>
   <v>       0.09921250       0.09779318       0.84340160 </v>
   <v>       0.09921250       0.59779318       0.34340160 </v>
   <v>       0.09921250       0.59779318       0.84340160 </v>
   <v>       0.59921250       0.09779318       0.34340160 </v>
   <v>       0.59921250       0.09779318       0.84340160 </v>
   <v>       0.59921250       0.59779318       0.34340160 </v>
   <v>       0.59921250       0.59779318       0.84340160 </v>
   <v>       0.09924085       0.34340027       0.09779994 </v>
   <v>       0.09924085       0.34340027       0.59779994 </v>
   <v>       0.09924085       0.84340027       0.09779994 </v>
   <v>       0.09924085       0.84340027       0.59779994 </v>
   <v>       0.59924085       0.34340027       0.09779994 </v>
   <v>       0.59924085       0.34340027       0.59779994 </v>
   <v>       0.59924085       0.84340027       0.09779994 </v>
   <v>       0.59924085       0.84340027       0.59779994 </v>
   <v>       0.49393641       0.49819524       0.33719356 </v>
   <v>       0.49393641       0.49819524       0.83719356 </v>
   <v>       0.49393641      -0.00180476       0.33719356 </v>
   <v>       0.49393641      -0.00180476       0.83719356 </v>
   <v>       0.99393641       0.49819524       0.33719356 </v>
   <v>       0.99393641       0.49819524       0.83719356 </v>
   <v>       0.99393641      -0.00180476       0.33719356 </v>
   <v>       0.99393641      -0.00180476       0.83719356 </v>
   <v>       0.49396147       0.33718604       0.49819550 </v>
   <v>       0.49396147       0.33718604      -0.00180450 </v>
   <v>       0.49396147       0.83718604       0.49819550 </v>
   <v>       0.49396147       0.83718604      -0.00180450 </v>
   <v>       0.99396147       0.33718604       0.49819550 </v>
   <v>       0.99396147       0.33718604      -0.00180450 </v>
   <v>       0.99396147       0.83718604       0.49819550 </v>
   <v>       0.99396147       0.83718604      -0.00180450 </v>
   <v>       0.17070766       0.00343097       0.00343702 </v>
   <v>       0.17070766       0.00343097       0.50343702 </v>
   <v>       0.17070766       0.50343097       0.00343702 </v>
   <v>       0.17070766       0.50343097       0.50343702 </v>
   <v>       0.67070766       0.00343097       0.00343702 </v>
   <v>       0.67070766       0.00343097       0.50343702 </v>
   <v>       0.67070766       0.50343097       0.00343702 </v>
   <v>       0.67070766       0.50343097       0.50343702 </v>
   <v>       0.00444130       0.00231079       0.16479515 </v>
   <v>       0.00444130       0.00231079       0.66479515 </v>
   <v>       0.00444130       0.50231079       0.16479515 </v>
   <v>       0.00444130       0.50231079       0.66479515 </v>
   <v>       0.50444130       0.00231079       0.16479515 </v>
   <v>       0.50444130       0.00231079       0.66479515 </v>
   <v>       0.50444130       0.50231079       0.16479515 </v>
   <v>       0.50444130       0.50231079       0.66479515 </v>
   <v>       0.00442991       0.16478667       0.00231934 </v>
   <v>       0.00442991       0.16478667       0.50231934 </v>
   <v>       0.00442991       0.66478667       0.00231934 </v>
   <v>       0.00442991       0.66478667       0.50231934 </v>
   <v>       0.50442991       0.16478667       0.00231934 </v>
   <v>       0.50442991       0.16478667       0.50231934 </v>
   <v>       0.50442991       0.66478667       0.00231934 </v>
   <v>       0.50442991       0.66478667       0.50231934 </v>
   <v>       0.24595149       0.24912761       0.24908101 </v>
   <v>       0.24595149       0.24912761       0.74908101 </v>
   <v>       0.24595149       0.74912761       0.24908101 </v>
   <v>       0.24595149       0.74912761       0.74908101 </v>
   <v>       0.74595149       0.24912761       0.24908101 </v>
   <v>       0.74595149       0.24912761       0.74908101 </v>
   <v>       0.74595149       0.74912761       0.24908101 </v>
   <v>       0.74595149       0.74912761       0.74908101 </v>
   <v>       0.33935587       0.49760155       0.49760290 </v>
   <v>       0.33935587       0.49760155       0.99760290 </v>
   <v>       0.33935587      -0.00239845       0.49760290 </v>
   <v>       0.33935587      -0.00239845       0.99760290 </v>
   <v>       0.83935587       0.49760155       0.49760290 </v>
   <v>       0.83935587       0.49760155       0.99760290 </v>
   <v>       0.83935587      -0.00239845       0.49760290 </v>
   <v>       0.83935587      -0.00239845       0.99760290 </v>
   <v>       0.30375951       0.30996618       0.30993637 </v>
   <v>       0.30375951       0.30996618       0.80993637 </v>
   <v>       0.30375951       0.80996618       0.30993637 </v>
   <v>       0.30375951       0.80996618       0.80993637 </v>
   <v>       0.80375951       0.30996618       0.30993637 </v>
   <v>       0.80375951       0.30996618       0.80993637 </v>
   <v>       0.80375951       0.80996618       0.30993637 </v>
   <v>       0.80375951       0.80996618       0.80993637 </v>
   <v>       0.19243085       0.18667513       0.18670923 </v>
   <v>       0.19243085       0.18667513       0.68670923 </v>
   <v>       0.19243085       0.68667513       0.18670923 </v>
   <v>       0.19243085       0.68667513       0.68670923 </v>
   <v>       0.69243085       0.18667513       0.18670923 </v>
   <v>       0.69243085       0.18667513       0.68670923 </v>
   <v>       0.69243085       0.68667513       0.18670923 </v>
   <v>       0.69243085       0.68667513       0.68670923 </v>
  </varray>
 </structure>
</modeling>
