unknown system                          
            1
     9.239087    0.804594    4.122687
     2.676747    9.871023    4.215845
    -0.051444    1.945485   10.238064
   B    C 
    96    24
unknown system                          
            1
     9.239087    0.804594    4.122687
     2.676747    9.871023    4.215845
    -0.051444    1.945485   10.238064
   B    C 
    96    24
Direct configuration=     1
   0.15792300  0.40375800  0.40375800
   0.15792300  0.40375800  0.90375800
   0.15792300  0.90375800  0.40375800
   0.15792300  0.90375800  0.90375800
   0.65792300  0.40375800  0.40375800
   0.65792300  0.40375800  0.90375800
   0.65792300  0.90375800  0.40375800
   0.65792300  0.90375800  0.90375800
   0.40163200  0.40233800  0.15722000
   0.40163200  0.40233800  0.65722000
   0.40163200  0.90233800  0.15722000
   0.40163200  0.90233800  0.65722000
   0.90163200  0.40233800  0.15722000
   0.90163200  0.40233800  0.65722000
   0.90163200  0.90233800  0.15722000
   0.90163200  0.90233800  0.65722000
   0.40163200  0.15722000  0.40233800
   0.40163200  0.15722000  0.90233800
   0.40163200  0.65722000  0.40233800
   0.40163200  0.65722000  0.90233800
   0.90163200  0.15722000  0.40233800
   0.90163200  0.15722000  0.90233800
   0.90163200  0.65722000  0.40233800
   0.90163200  0.65722000  0.90233800
   0.34136600  0.09666500  0.09666500
   0.34136600  0.09666500  0.59666500
   0.34136600  0.59666500  0.09666500
   0.34136600  0.59666500  0.59666500
   0.84136600  0.09666500  0.09666500
   0.84136600  0.09666500  0.59666500
   0.84136600  0.59666500  0.09666500
   0.84136600  0.59666500  0.59666500
   0.09870000  0.09683600  0.34371100
   0.09870000  0.09683600  0.84371100
   0.09870000  0.59683600  0.34371100
   0.09870000  0.59683600  0.84371100
   0.59870000  0.09683600  0.34371100
   0.59870000  0.09683600  0.84371100
   0.59870000  0.59683600  0.34371100
   0.59870000  0.59683600  0.84371100
   0.09870000  0.34371100  0.09683600
   0.09870000  0.34371100  0.59683600
   0.09870000  0.84371100  0.09683600
   0.09870000  0.84371100  0.59683600
   0.59870000  0.34371100  0.09683600
   0.59870000  0.34371100  0.59683600
   0.59870000  0.84371100  0.09683600
   0.59870000  0.84371100  0.59683600
   0.49444700  0.49739900  0.33679800
   0.49444700  0.49739900  0.83679800
   0.49444700  0.99739900  0.33679800
   0.49444700  0.99739900  0.83679800
   0.99444700  0.49739900  0.33679800
   0.99444700  0.49739900  0.83679800
   0.99444700  0.99739900  0.33679800
   0.99444700  0.99739900  0.83679800
   0.49444700  0.33679800  0.49739900
   0.49444700  0.33679800  0.99739900
   0.49444700  0.83679800  0.49739900
   0.49444700  0.83679800  0.99739900
   0.99444700  0.33679800  0.49739900
   0.99444700  0.33679800  0.99739900
   0.99444700  0.83679800  0.49739900
   0.99444700  0.83679800  0.99739900
   0.17079500  0.00295000  0.00295000
   0.17079500  0.00295000  0.50295000
   0.17079500  0.50295000  0.00295000
   0.17079500  0.50295000  0.50295000
   0.67079500  0.00295000  0.00295000
   0.67079500  0.00295000  0.50295000
   0.67079500  0.50295000  0.00295000
   0.67079500  0.50295000  0.50295000
   0.00347500  0.00275500  0.16436200
   0.00347500  0.00275500  0.66436200
   0.00347500  0.50275500  0.16436200
   0.00347500  0.50275500  0.66436200
   0.50347500  0.00275500  0.16436200
   0.50347500  0.00275500  0.66436200
   0.50347500  0.50275500  0.16436200
   0.50347500  0.50275500  0.66436200
   0.00347500  0.16436200  0.00275500
   0.00347500  0.16436200  0.50275500
   0.00347500  0.66436200  0.00275500
   0.00347500  0.66436200  0.50275500
   0.50347500  0.16436200  0.00275500
   0.50347500  0.16436200  0.50275500
   0.50347500  0.66436200  0.00275500
   0.50347500  0.66436200  0.50275500
   0.24799500  0.24900900  0.24900900
   0.24799500  0.24900900  0.74900900
   0.24799500  0.74900900  0.24900900
   0.24799500  0.74900900  0.74900900
   0.74799500  0.24900900  0.24900900
   0.74799500  0.24900900  0.74900900
   0.74799500  0.74900900  0.24900900
   0.74799500  0.74900900  0.74900900
   0.33833600  0.49792800  0.49792800
   0.33833600  0.49792800  0.99792800
   0.33833600  0.99792800  0.49792800
   0.33833600  0.99792800  0.99792800
   0.83833600  0.49792800  0.49792800
   0.83833600  0.49792800  0.99792800
   0.83833600  0.99792800  0.49792800
   0.83833600  0.99792800  0.99792800
   0.30608800  0.30943700  0.30943700
   0.30608800  0.30943700  0.80943700
   0.30608800  0.80943700  0.30943700
   0.30608800  0.80943700  0.80943700
   0.80608800  0.30943700  0.30943700
   0.80608800  0.30943700  0.80943700
   0.80608800  0.80943700  0.30943700
   0.80608800  0.80943700  0.80943700
   0.19098900  0.18883500  0.18883500
   0.19098900  0.18883500  0.68883500
   0.19098900  0.68883500  0.18883500
   0.19098900  0.68883500  0.68883500
   0.69098900  0.18883500  0.18883500
   0.69098900  0.18883500  0.68883500
   0.69098900  0.68883500  0.18883500
   0.69098900  0.68883500  0.68883500
unknown system                          
            1
     9.080454    0.366625    4.050322
     2.608355    9.433361    3.228895
    -0.141560    0.846709   10.270054
   B    C 
    96    24
Direct configuration=     2
   0.16294594  0.40421541  0.40059488
   0.16294594  0.40421541  0.90059488
   0.16294594  0.90421541  0.40059488
   0.16294594  0.90421541  0.90059488
   0.66294594  0.40421541  0.40059488
   0.66294594  0.40421541  0.90059488
   0.66294594  0.90421541  0.40059488
   0.66294594  0.90421541  0.90059488
   0.40428168  0.40102914  0.15840681
   0.40428168  0.40102914  0.65840681
   0.40428168  0.90102914  0.15840681
   0.40428168  0.90102914  0.65840681
   0.90428168  0.40102914  0.15840681
   0.90428168  0.40102914  0.65840681
   0.90428168  0.90102914  0.15840681
   0.90428168  0.90102914  0.65840681
   0.40534007  0.15315784  0.39885356
   0.40534007  0.15315784  0.89885356
   0.40534007  0.65315784  0.39885356
   0.40534007  0.65315784  0.89885356
   0.90534007  0.15315784  0.39885356
   0.90534007  0.15315784  0.89885356
   0.90534007  0.65315784  0.39885356
   0.90534007  0.65315784  0.89885356
   0.33547553  0.09792374  0.10122415
   0.33547553  0.09792374  0.60122415
   0.33547553  0.59792374  0.10122415
   0.33547553  0.59792374  0.60122415
   0.83547553  0.09792374  0.10122415
   0.83547553  0.09792374  0.60122415
   0.83547553  0.59792374  0.10122415
   0.83547553  0.59792374  0.60122415
   0.09472883  0.09900821  0.34042726
   0.09472883  0.09900821  0.84042726
   0.09472883  0.59900821  0.34042726
   0.09472883  0.59900821  0.84042726
   0.59472883  0.09900821  0.34042726
   0.59472883  0.09900821  0.84042726
   0.59472883  0.59900821  0.34042726
   0.59472883  0.59900821  0.84042726
   0.09530886  0.34679490  0.10083807
   0.09530886  0.34679490  0.60083807
   0.09530886  0.84679490  0.10083807
   0.09530886  0.84679490  0.60083807
   0.59530886  0.34679490  0.10083807
   0.59530886  0.34679490  0.60083807
   0.59530886  0.84679490  0.10083807
   0.59530886  0.84679490  0.60083807
   0.49141493  0.50881737  0.32885142
   0.49141493  0.50881737  0.82885142
   0.49141493  0.00881737  0.32885142
   0.49141493  0.00881737  0.82885142
   0.99141493  0.50881737  0.32885142
   0.99141493  0.50881737  0.82885142
   0.99141493  0.00881737  0.32885142
   0.99141493  0.00881737  0.82885142
   0.49416653  0.33313263  0.50507366
   0.49416653  0.33313263  0.00507366
   0.49416653  0.83313263  0.50507366
   0.49416653  0.83313263  0.00507366
   0.99416653  0.33313263  0.50507366
   0.99416653  0.33313263  0.00507366
   0.99416653  0.83313263  0.50507366
   0.99416653  0.83313263  0.00507366
   0.17125698 -0.00043077  0.00746031
   0.17125698 -0.00043077  0.50746031
   0.17125698  0.49956923  0.00746031
   0.17125698  0.49956923  0.50746031
   0.67125698 -0.00043077  0.00746031
   0.67125698 -0.00043077  0.50746031
   0.67125698  0.49956923  0.00746031
   0.67125698  0.49956923  0.50746031
   0.00670203 -0.00798854  0.17245568
   0.00670203 -0.00798854  0.67245568
   0.00670203  0.49201146  0.17245568
   0.00670203  0.49201146  0.67245568
   0.50670203 -0.00798854  0.17245568
   0.50670203 -0.00798854  0.67245568
   0.50670203  0.49201146  0.17245568
   0.50670203  0.49201146  0.67245568
   0.00486098  0.16672760 -0.00385158
   0.00486098  0.16672760  0.49614842
   0.00486098  0.66672760 -0.00385158
   0.00486098  0.66672760  0.49614842
   0.50486098  0.16672760 -0.00385158
   0.50486098  0.16672760  0.49614842
   0.50486098  0.66672760 -0.00385158
   0.50486098  0.66672760  0.49614842
   0.24733186  0.25030526  0.24844865
   0.24733186  0.25030526  0.74844865
   0.24733186  0.75030526  0.24844865
   0.24733186  0.75030526  0.74844865
   0.74733186  0.25030526  0.24844865
   0.74733186  0.25030526  0.74844865
   0.74733186  0.75030526  0.24844865
   0.74733186  0.75030526  0.74844865
   0.33898706  0.50096613  0.49428929
   0.33898706  0.50096613  0.99428929
   0.33898706  0.00096613  0.49428929
   0.33898706  0.00096613  0.99428929
   0.83898706  0.50096613  0.49428929
   0.83898706  0.50096613  0.99428929
   0.83898706  0.00096613  0.49428929
   0.83898706  0.00096613  0.99428929
   0.28666382  0.31717354  0.30677641
   0.28666382  0.31717354  0.80677641
   0.28666382  0.81717354  0.30677641
   0.28666382  0.81717354  0.80677641
   0.78666382  0.31717354  0.30677641
   0.78666382  0.31717354  0.80677641
   0.78666382  0.81717354  0.30677641
   0.78666382  0.81717354  0.80677641
   0.21053490  0.17916855  0.19015246
   0.21053490  0.17916855  0.69015246
   0.21053490  0.67916855  0.19015246
   0.21053490  0.67916855  0.69015246
   0.71053490  0.17916855  0.19015246
   0.71053490  0.17916855  0.69015246
   0.71053490  0.67916855  0.19015246
   0.71053490  0.67916855  0.69015246
unknown system                          
            1
     9.148562    0.578729    4.081481
     2.638992    9.636484    3.704525
    -0.097706    1.378907   10.244531
   B    C 
    96    24
Direct configuration=     3
   0.16046464  0.40405476  0.40208392
   0.16046464  0.40405476  0.90208392
   0.16046464  0.90405476  0.40208392
   0.16046464  0.90405476  0.90208392
   0.66046464  0.40405476  0.40208392
   0.66046464  0.40405476  0.90208392
   0.66046464  0.90405476  0.40208392
   0.66046464  0.90405476  0.90208392
   0.40300575  0.40155842  0.15791519
   0.40300575  0.40155842  0.65791519
   0.40300575  0.90155842  0.15791519
   0.40300575  0.90155842  0.65791519
   0.90300575  0.40155842  0.15791519
   0.90300575  0.40155842  0.65791519
   0.90300575  0.90155842  0.15791519
   0.90300575  0.90155842  0.65791519
   0.40348940  0.15532125  0.40067329
   0.40348940  0.15532125  0.90067329
   0.40348940  0.65532125  0.40067329
   0.40348940  0.65532125  0.90067329
   0.90348940  0.15532125  0.40067329
   0.90348940  0.15532125  0.90067329
   0.90348940  0.65532125  0.40067329
   0.90348940  0.65532125  0.90067329
   0.33839773  0.09715888  0.09900517
   0.33839773  0.09715888  0.59900517
   0.33839773  0.59715888  0.09900517
   0.33839773  0.59715888  0.59900517
   0.83839773  0.09715888  0.09900517
   0.83839773  0.09715888  0.59900517
   0.83839773  0.59715888  0.09900517
   0.83839773  0.59715888  0.59900517
   0.09662305  0.09819664  0.34186212
   0.09662305  0.09819664  0.84186212
   0.09662305  0.59819664  0.34186212
   0.09662305  0.59819664  0.84186212
   0.59662305  0.09819664  0.34186212
   0.59662305  0.09819664  0.84186212
   0.59662305  0.59819664  0.34186212
   0.59662305  0.59819664  0.84186212
   0.09701057  0.34508658  0.09881690
   0.09701057  0.34508658  0.59881690
   0.09701057  0.84508658  0.09881690
   0.09701057  0.84508658  0.59881690
   0.59701057  0.34508658  0.09881690
   0.59701057  0.34508658  0.59881690
   0.59701057  0.84508658  0.09881690
   0.59701057  0.84508658  0.59881690
   0.49280599  0.50360118  0.33210009
   0.49280599  0.50360118  0.83210009
   0.49280599  0.00360118  0.33210009
   0.49280599  0.00360118  0.83210009
   0.99280599  0.50360118  0.33210009
   0.99280599  0.50360118  0.83210009
   0.99280599  0.00360118  0.33210009
   0.99280599  0.00360118  0.83210009
   0.49439219  0.33453714  0.50161924
   0.49439219  0.33453714  0.00161924
   0.49439219  0.83453714  0.50161924
   0.49439219  0.83453714  0.00161924
   0.99439219  0.33453714  0.50161924
   0.99439219  0.33453714  0.00161924
   0.99439219  0.83453714  0.50161924
   0.99439219  0.83453714  0.00161924
   0.17108332  0.00099789  0.00548341
   0.17108332  0.00099789  0.50548341
   0.17108332  0.50099789  0.00548341
   0.17108332  0.50099789  0.50548341
   0.67108332  0.00099789  0.00548341
   0.67108332  0.00099789  0.50548341
   0.67108332  0.50099789  0.00548341
   0.67108332  0.50099789  0.50548341
   0.00521868 -0.00312511  0.16911108
   0.00521868 -0.00312511  0.66911108
   0.00521868  0.49687489  0.16911108
   0.00521868  0.49687489  0.66911108
   0.50521868 -0.00312511  0.16911108
   0.50521868 -0.00312511  0.66911108
   0.50521868  0.49687489  0.16911108
   0.50521868  0.49687489  0.66911108
   0.00410909  0.16588997 -0.00084033
   0.00410909  0.16588997  0.49915967
   0.00410909  0.66588997 -0.00084033
   0.00410909  0.66588997  0.49915967
   0.50410909  0.16588997 -0.00084033
   0.50410909  0.16588997  0.49915967
   0.50410909  0.66588997 -0.00084033
   0.50410909  0.66588997  0.49915967
   0.24764907  0.24970047  0.24865553
   0.24764907  0.24970047  0.74865553
   0.24764907  0.74970047  0.24865553
   0.24764907  0.74970047  0.74865553
   0.74764907  0.24970047  0.24865553
   0.74764907  0.24970047  0.74865553
   0.74764907  0.74970047  0.24865553
   0.74764907  0.74970047  0.74865553
   0.33862951  0.49963377  0.49587600
   0.33862951  0.49963377  0.99587600
   0.33862951 -0.00036623  0.49587600
   0.33862951 -0.00036623  0.99587600
   0.83862951  0.49963377  0.49587600
   0.83862951  0.49963377  0.99587600
   0.83862951 -0.00036623  0.49587600
   0.83862951 -0.00036623  0.99587600
   0.29608876  0.31387716  0.30762067
   0.29608876  0.31387716  0.80762067
   0.29608876  0.81387716  0.30762067
   0.29608876  0.81387716  0.80762067
   0.79608876  0.31387716  0.30762067
   0.79608876  0.31387716  0.80762067
   0.79608876  0.81387716  0.30762067
   0.79608876  0.81387716  0.80762067
   0.20103225  0.18351200  0.19001873
   0.20103225  0.18351200  0.69001873
   0.20103225  0.68351200  0.19001873
   0.20103225  0.68351200  0.69001873
   0.70103225  0.18351200  0.19001873
   0.70103225  0.18351200  0.69001873
   0.70103225  0.68351200  0.19001873
   0.70103225  0.68351200  0.69001873
unknown system                          
            1
     9.136308    0.447102    4.098424
     2.629711    9.442957    3.449448
    -0.106713    1.057983   10.308573
   B    C 
    96    24
Direct configuration=     4
   0.15549742  0.40728021  0.40552772
   0.15549742  0.40728021  0.90552772
   0.15549742  0.90728021  0.40552772
   0.15549742  0.90728021  0.90552772
   0.65549742  0.40728021  0.40552772
   0.65549742  0.40728021  0.90552772
   0.65549742  0.90728021  0.40552772
   0.65549742  0.90728021  0.90552772
   0.39947870  0.40120771  0.15953658
   0.39947870  0.40120771  0.65953658
   0.39947870  0.90120771  0.15953658
   0.39947870  0.90120771  0.65953658
   0.89947870  0.40120771  0.15953658
   0.89947870  0.40120771  0.65953658
   0.89947870  0.90120771  0.15953658
   0.89947870  0.90120771  0.65953658
   0.39697768  0.16007820  0.39733531
   0.39697768  0.16007820  0.89733531
   0.39697768  0.66007820  0.39733531
   0.39697768  0.66007820  0.89733531
   0.89697768  0.16007820  0.39733531
   0.89697768  0.16007820  0.89733531
   0.89697768  0.66007820  0.39733531
   0.89697768  0.66007820  0.89733531
   0.34556152  0.09296709  0.09460937
   0.34556152  0.09296709  0.59460937
   0.34556152  0.59296709  0.09460937
   0.34556152  0.59296709  0.59460937
   0.84556152  0.09296709  0.09460937
   0.84556152  0.09296709  0.59460937
   0.84556152  0.59296709  0.09460937
   0.84556152  0.59296709  0.59460937
   0.10012943  0.09777353  0.34114670
   0.10012943  0.09777353  0.84114670
   0.10012943  0.59777353  0.34114670
   0.10012943  0.59777353  0.84114670
   0.60012943  0.09777353  0.34114670
   0.60012943  0.09777353  0.84114670
   0.60012943  0.59777353  0.34114670
   0.60012943  0.59777353  0.84114670
   0.10295787  0.34059416  0.10198724
   0.10295787  0.34059416  0.60198724
   0.10295787  0.84059416  0.10198724
   0.10295787  0.84059416  0.60198724
   0.60295787  0.34059416  0.10198724
   0.60295787  0.34059416  0.60198724
   0.60295787  0.84059416  0.10198724
   0.60295787  0.84059416  0.60198724
   0.49263956  0.50233039  0.33759548
   0.49263956  0.50233039  0.83759548
   0.49263956  0.00233039  0.33759548
   0.49263956  0.00233039  0.83759548
   0.99263956  0.50233039  0.33759548
   0.99263956  0.50233039  0.83759548
   0.99263956  0.00233039  0.33759548
   0.99263956  0.00233039  0.83759548
   0.49429235  0.33742104  0.50009882
   0.49429235  0.33742104  0.00009882
   0.49429235  0.83742104  0.50009882
   0.49429235  0.83742104  0.00009882
   0.99429235  0.33742104  0.50009882
   0.99429235  0.33742104  0.00009882
   0.99429235  0.83742104  0.50009882
   0.99429235  0.83742104  0.00009882
   0.16979011  0.00174878  0.00445232
   0.16979011  0.00174878  0.50445232
   0.16979011  0.50174878  0.00445232
   0.16979011  0.50174878  0.50445232
   0.66979011  0.00174878  0.00445232
   0.66979011  0.00174878  0.50445232
   0.66979011  0.50174878  0.00445232
   0.66979011  0.50174878  0.50445232
   0.00552205 -0.00214200  0.16414761
   0.00552205 -0.00214200  0.66414761
   0.00552205  0.49785800  0.16414761
   0.00552205  0.49785800  0.66414761
   0.50552205 -0.00214200  0.16414761
   0.50552205 -0.00214200  0.66414761
   0.50552205  0.49785800  0.16414761
   0.50552205  0.49785800  0.66414761
   0.00485218  0.16326414  0.00055266
   0.00485218  0.16326414  0.50055266
   0.00485218  0.66326414  0.00055266
   0.00485218  0.66326414  0.50055266
   0.50485218  0.16326414  0.00055266
   0.50485218  0.16326414  0.50055266
   0.50485218  0.66326414  0.00055266
   0.50485218  0.66326414  0.50055266
   0.24663474  0.24987596  0.24808394
   0.24663474  0.24987596  0.74808394
   0.24663474  0.74987596  0.24808394
   0.24663474  0.74987596  0.74808394
   0.74663474  0.24987596  0.24808394
   0.74663474  0.24987596  0.74808394
   0.74663474  0.74987596  0.24808394
   0.74663474  0.74987596  0.74808394
   0.33971139  0.49935473  0.49669191
   0.33971139  0.49935473  0.99669191
   0.33971139 -0.00064527  0.49669191
   0.33971139 -0.00064527  0.99669191
   0.83971139  0.49935473  0.49669191
   0.83971139  0.49935473  0.99669191
   0.83971139 -0.00064527  0.49669191
   0.83971139 -0.00064527  0.99669191
   0.30086746  0.31359708  0.30986747
   0.30086746  0.31359708  0.80986747
   0.30086746  0.81359708  0.30986747
   0.30086746  0.81359708  0.80986747
   0.80086746  0.31359708  0.30986747
   0.80086746  0.31359708  0.80986747
   0.80086746  0.81359708  0.30986747
   0.80086746  0.81359708  0.80986747
   0.19508753  0.18464996  0.18836788
   0.19508753  0.18464996  0.68836788
   0.19508753  0.68464996  0.18836788
   0.19508753  0.68464996  0.68836788
   0.69508753  0.18464996  0.18836788
   0.69508753  0.18464996  0.68836788
   0.69508753  0.68464996  0.18836788
   0.69508753  0.68464996  0.68836788
unknown system                          
            1
     9.139259    0.485541    4.093190
     2.632242    9.498867    3.523759
    -0.104073    1.151704   10.289146
   B    C 
    96    24
Direct configuration=     5
   0.15695806  0.40630536  0.40450913
   0.15695806  0.40630536  0.90450913
   0.15695806  0.90630536  0.40450913
   0.15695806  0.90630536  0.90450913
   0.65695806  0.40630536  0.40450913
   0.65695806  0.40630536  0.90450913
   0.65695806  0.90630536  0.40450913
   0.65695806  0.90630536  0.90450913
   0.40051042  0.40131013  0.15906617
   0.40051042  0.40131013  0.65906617
   0.40051042  0.90131013  0.15906617
   0.40051042  0.90131013  0.65906617
   0.90051042  0.40131013  0.15906617
   0.90051042  0.40131013  0.65906617
   0.90051042  0.90131013  0.15906617
   0.90051042  0.90131013  0.65906617
   0.39887117  0.15872567  0.39825827
   0.39887117  0.15872567  0.89825827
   0.39887117  0.65872567  0.39825827
   0.39887117  0.65872567  0.89825827
   0.89887117  0.15872567  0.39825827
   0.89887117  0.15872567  0.89825827
   0.89887117  0.65872567  0.39825827
   0.89887117  0.65872567  0.89825827
   0.34345710  0.09423013  0.09591128
   0.34345710  0.09423013  0.59591128
   0.34345710  0.59423013  0.09591128
   0.34345710  0.59423013  0.59591128
   0.84345710  0.09423013  0.09591128
   0.84345710  0.09423013  0.59591128
   0.84345710  0.59423013  0.09591128
   0.84345710  0.59423013  0.59591128
   0.09910535  0.09789194  0.34136074
   0.09910535  0.09789194  0.84136074
   0.09910535  0.59789194  0.34136074
   0.09910535  0.59789194  0.84136074
   0.59910535  0.09789194  0.34136074
   0.59910535  0.09789194  0.84136074
   0.59910535  0.59789194  0.34136074
   0.59910535  0.59789194  0.84136074
   0.10122866  0.34187216  0.10111010
   0.10122866  0.34187216  0.60111010
   0.10122866  0.84187216  0.10111010
   0.10122866  0.84187216  0.60111010
   0.60122866  0.34187216  0.10111010
   0.60122866  0.34187216  0.60111010
   0.60122866  0.84187216  0.10111010
   0.60122866  0.84187216  0.60111010
   0.49270190  0.50265138  0.33602015
   0.49270190  0.50265138  0.83602015
   0.49270190  0.00265138  0.33602015
   0.49270190  0.00265138  0.83602015
   0.99270190  0.50265138  0.33602015
   0.99270190  0.50265138  0.83602015
   0.99270190  0.00265138  0.33602015
   0.99270190  0.00265138  0.83602015
   0.49432060  0.33657925  0.50051950
   0.49432060  0.33657925  0.00051950
   0.49432060  0.83657925  0.50051950
   0.49432060  0.83657925  0.00051950
   0.99432060  0.33657925  0.50051950
   0.99432060  0.33657925  0.00051950
   0.99432060  0.83657925  0.50051950
   0.99432060  0.83657925  0.00051950
   0.17016489  0.00154173  0.00474279
   0.17016489  0.00154173  0.50474279
   0.17016489  0.50154173  0.00474279
   0.17016489  0.50154173  0.50474279
   0.67016489  0.00154173  0.00474279
   0.67016489  0.00154173  0.50474279
   0.67016489  0.50154173  0.00474279
   0.67016489  0.50154173  0.50474279
   0.00542096 -0.00238357  0.16557167
   0.00542096 -0.00238357  0.66557167
   0.00542096  0.49761643  0.16557167
   0.00542096  0.49761643  0.66557167
   0.50542096 -0.00238357  0.16557167
   0.50542096 -0.00238357  0.66557167
   0.50542096  0.49761643  0.16557167
   0.50542096  0.49761643  0.66557167
   0.00463647  0.16402771  0.00016816
   0.00463647  0.16402771  0.50016816
   0.00463647  0.66402771  0.00016816
   0.00463647  0.66402771  0.50016816
   0.50463647  0.16402771  0.00016816
   0.50463647  0.16402771  0.50016816
   0.50463647  0.66402771  0.00016816
   0.50463647  0.66402771  0.50016816
   0.24692888  0.24983411  0.24824592
   0.24692888  0.24983411  0.74824592
   0.24692888  0.74983411  0.24824592
   0.24692888  0.74983411  0.74824592
   0.74692888  0.24983411  0.24824592
   0.74692888  0.24983411  0.74824592
   0.74692888  0.74983411  0.24824592
   0.74692888  0.74983411  0.74824592
   0.33939813  0.49942454  0.49646029
   0.33939813  0.49942454  0.99646029
   0.33939813 -0.00057546  0.49646029
   0.33939813 -0.00057546  0.99646029
   0.83939813  0.49942454  0.49646029
   0.83939813  0.49942454  0.99646029
   0.83939813 -0.00057546  0.49646029
   0.83939813 -0.00057546  0.99646029
   0.29948114  0.31363626  0.30922960
   0.29948114  0.31363626  0.80922960
   0.29948114  0.81363626  0.30922960
   0.29948114  0.81363626  0.80922960
   0.79948114  0.31363626  0.30922960
   0.79948114  0.31363626  0.80922960
   0.79948114  0.81363626  0.30922960
   0.79948114  0.81363626  0.80922960
   0.19681626  0.18435421  0.18882723
   0.19681626  0.18435421  0.68882723
   0.19681626  0.68435421  0.18882723
   0.19681626  0.68435421  0.68882723
   0.69681626  0.18435421  0.18882723
   0.69681626  0.18435421  0.68882723
   0.69681626  0.68435421  0.18882723
   0.69681626  0.68435421  0.68882723
unknown system                          
            1
     9.154625    0.470858    4.111271
     2.642084    9.464660    3.497214
    -0.087687    1.110741   10.298346
   B    C 
    96    24
Direct configuration=     6
   0.15611936  0.40567503  0.40623414
   0.15611936  0.40567503  0.90623414
   0.15611936  0.90567503  0.40623414
   0.15611936  0.90567503  0.90623414
   0.65611936  0.40567503  0.40623414
   0.65611936  0.40567503  0.90623414
   0.65611936  0.90567503  0.40623414
   0.65611936  0.90567503  0.90623414
   0.40132970  0.40070823  0.15837527
   0.40132970  0.40070823  0.65837527
   0.40132970  0.90070823  0.15837527
   0.40132970  0.90070823  0.65837527
   0.90132970  0.40070823  0.15837527
   0.90132970  0.40070823  0.65837527
   0.90132970  0.90070823  0.15837527
   0.90132970  0.90070823  0.65837527
   0.39912517  0.15943687  0.39943439
   0.39912517  0.15943687  0.89943439
   0.39912517  0.65943687  0.39943439
   0.39912517  0.65943687  0.89943439
   0.89912517  0.15943687  0.39943439
   0.89912517  0.15943687  0.89943439
   0.89912517  0.65943687  0.39943439
   0.89912517  0.65943687  0.89943439
   0.34380481  0.09476137  0.09431541
   0.34380481  0.09476137  0.59431541
   0.34380481  0.59476137  0.09431541
   0.34380481  0.59476137  0.59431541
   0.84380481  0.09476137  0.09431541
   0.84380481  0.09476137  0.59431541
   0.84380481  0.59476137  0.09431541
   0.84380481  0.59476137  0.59431541
   0.09865798  0.09812139  0.34323080
   0.09865798  0.09812139  0.84323080
   0.09865798  0.59812139  0.34323080
   0.09865798  0.59812139  0.84323080
   0.59865798  0.09812139  0.34323080
   0.59865798  0.09812139  0.84323080
   0.59865798  0.59812139  0.34323080
   0.59865798  0.59812139  0.84323080
   0.10093462  0.34206431  0.09955564
   0.10093462  0.34206431  0.59955564
   0.10093462  0.84206431  0.09955564
   0.10093462  0.84206431  0.59955564
   0.60093462  0.34206431  0.09955564
   0.60093462  0.34206431  0.59955564
   0.60093462  0.84206431  0.09955564
   0.60093462  0.84206431  0.59955564
   0.49295198  0.49955574  0.33652927
   0.49295198  0.49955574  0.83652927
   0.49295198 -0.00044426  0.33652927
   0.49295198 -0.00044426  0.83652927
   0.99295198  0.49955574  0.33652927
   0.99295198  0.49955574  0.83652927
   0.99295198 -0.00044426  0.33652927
   0.99295198 -0.00044426  0.83652927
   0.49431987  0.33704108  0.49917263
   0.49431987  0.33704108 -0.00082737
   0.49431987  0.83704108  0.49917263
   0.49431987  0.83704108 -0.00082737
   0.99431987  0.33704108  0.49917263
   0.99431987  0.33704108 -0.00082737
   0.99431987  0.83704108  0.49917263
   0.99431987  0.83704108 -0.00082737
   0.17094027  0.00268336  0.00354784
   0.17094027  0.00268336  0.50354784
   0.17094027  0.50268336  0.00354784
   0.17094027  0.50268336  0.50354784
   0.67094027  0.00268336  0.00354784
   0.67094027  0.00268336  0.50354784
   0.67094027  0.50268336  0.00354784
   0.67094027  0.50268336  0.50354784
   0.00533002  0.00024548  0.16559040
   0.00533002  0.00024548  0.66559040
   0.00533002  0.50024548  0.16559040
   0.00533002  0.50024548  0.66559040
   0.50533002  0.00024548  0.16559040
   0.50533002  0.00024548  0.66559040
   0.50533002  0.50024548  0.16559040
   0.50533002  0.50024548  0.66559040
   0.00469211  0.16422614  0.00112756
   0.00469211  0.16422614  0.50112756
   0.00469211  0.66422614  0.00112756
   0.00469211  0.66422614  0.50112756
   0.50469211  0.16422614  0.00112756
   0.50469211  0.16422614  0.50112756
   0.50469211  0.66422614  0.00112756
   0.50469211  0.66422614  0.50112756
   0.24696423  0.25080965  0.24901328
   0.24696423  0.25080965  0.74901328
   0.24696423  0.75080965  0.24901328
   0.24696423  0.75080965  0.74901328
   0.74696423  0.25080965  0.24901328
   0.74696423  0.25080965  0.74901328
   0.74696423  0.75080965  0.24901328
   0.74696423  0.75080965  0.74901328
   0.33834432  0.49852831  0.49748947
   0.33834432  0.49852831  0.99748947
   0.33834432 -0.00147169  0.49748947
   0.33834432 -0.00147169  0.99748947
   0.83834432  0.49852831  0.49748947
   0.83834432  0.49852831  0.99748947
   0.83834432 -0.00147169  0.49748947
   0.83834432 -0.00147169  0.99748947
   0.30109336  0.31290295  0.31004740
   0.30109336  0.31290295  0.81004740
   0.30109336  0.81290295  0.31004740
   0.30109336  0.81290295  0.81004740
   0.80109336  0.31290295  0.31004740
   0.80109336  0.31290295  0.81004740
   0.80109336  0.81290295  0.31004740
   0.80109336  0.81290295  0.81004740
   0.19539218  0.18324110  0.18633751
   0.19539218  0.18324110  0.68633751
   0.19539218  0.68324110  0.18633751
   0.19539218  0.68324110  0.68633751
   0.69539218  0.18324110  0.18633751
   0.69539218  0.18324110  0.68633751
   0.69539218  0.68324110  0.18633751
   0.69539218  0.68324110  0.68633751
unknown system                          
            1
     9.149718    0.475533    4.105507
     2.638946    9.475539    3.505662
    -0.092905    1.123783   10.295401
   B    C 
    96    24
Direct configuration=     7
   0.15638715  0.40587439  0.40568555
   0.15638715  0.40587439  0.90568555
   0.15638715  0.90587439  0.40568555
   0.15638715  0.90587439  0.90568555
   0.65638715  0.40587439  0.40568555
   0.65638715  0.40587439  0.90568555
   0.65638715  0.90587439  0.40568555
   0.65638715  0.90587439  0.90568555
   0.40106831  0.40090109  0.15859582
   0.40106831  0.40090109  0.65859582
   0.40106831  0.90090109  0.15859582
   0.40106831  0.90090109  0.65859582
   0.90106831  0.40090109  0.15859582
   0.90106831  0.40090109  0.65859582
   0.90106831  0.90090109  0.15859582
   0.90106831  0.90090109  0.65859582
   0.39904611  0.15920773  0.39905994
   0.39904611  0.15920773  0.89905994
   0.39904611  0.65920773  0.39905994
   0.39904611  0.65920773  0.89905994
   0.89904611  0.15920773  0.39905994
   0.89904611  0.15920773  0.89905994
   0.89904611  0.65920773  0.39905994