[1649874955.269490] [c1000a-s23:218055:0]    ucp_context.c:1075 UCX  ERROR exceeded transports/devices limit (78 requested, up to 64 are supported)
 running on    1 total cores
 distrk:  each k-point on    1 cores,    1 groups
 distr:  one band on    1 cores,    1 groups
 OpenACC runtime initialized ...    1 GPUs detected
 vasp.6.2.0 18Jan21 (build Feb 25 2021 07:51:20) complex                         
 POSCAR found type information on POSCAR B C 
 POSCAR found :  2 types and     120 ions
 scaLAPACK will be used selectively (only on CPU)
 LDA part: xc-table for Pade appr. of Perdew
 -----------------------------------------------------------------------------
|                                                                             |
|           W    W    AA    RRRRR   N    N  II  N    N   GGGG   !!!           |
|           W    W   A  A   R    R  NN   N  II  NN   N  G    G  !!!           |
|           W    W  A    A  R    R  N N  N  II  N N  N  G       !!!           |
|           W WW W  AAAAAA  RRRRR   N  N N  II  N  N N  G  GGG   !            |
|           WW  WW  A    A  R   R   N   NN  II  N   NN  G    G                |
|           W    W  A    A  R    R  N    N  II  N    N   GGGG   !!!           |
|                                                                             |
|     The requested file  could not be found or opened for reading            |
|     k-point information. Automatic k-point generation is used as a          |
|     fallback, which may lead to unwanted results.                           |
|                                                                             |
 -----------------------------------------------------------------------------

 POSCAR, INCAR and KPOINTS ok, starting setup
 FFT: planning ...
 WAVECAR not read
 entering main loop
       N       E                     dE             d eps       ncg     rms          rms(c)
DAV:   1     0.219355968988E+04    0.21936E+04   -0.24114E+05  3036   0.189E+03
DAV:   2    -0.691483684070E+03   -0.28850E+04   -0.27095E+04  3674   0.390E+02
DAV:   3    -0.845136356254E+03   -0.15365E+03   -0.15128E+03  3600   0.795E+01
DAV:   4    -0.847607476245E+03   -0.24711E+01   -0.24579E+01  3568   0.102E+01
DAV:   5    -0.847646035692E+03   -0.38559E-01   -0.38497E-01  3544   0.118E+00    0.629E+01
RMM:   6    -0.744404641302E+03    0.10324E+03   -0.12022E+02  3036   0.181E+01    0.350E+01
RMM:   7    -0.722264770548E+03    0.22140E+02   -0.10691E+02  3036   0.172E+01    0.118E+01
RMM:   8    -0.721810030912E+03    0.45474E+00   -0.10096E+01  3036   0.614E+00    0.270E+00
RMM:   9    -0.721593887462E+03    0.21614E+00   -0.24213E+00  3036   0.272E+00    0.133E+00
RMM:  10    -0.721564280970E+03    0.29606E-01   -0.28503E-01  3036   0.106E+00    0.433E-01
RMM:  11    -0.721566384169E+03   -0.21032E-02   -0.53132E-02  3036   0.405E-01    0.150E-01
RMM:  12    -0.721567232273E+03   -0.84810E-03   -0.67815E-03  3037   0.155E-01    0.118E-01
RMM:  13    -0.721567032749E+03    0.19952E-03   -0.32950E-03  3046   0.841E-02    0.249E-02
RMM:  14    -0.721567088473E+03   -0.55723E-04   -0.51869E-04  3049   0.378E-02    0.846E-03
RMM:  15    -0.721567107668E+03   -0.19195E-04   -0.15895E-04  3064   0.178E-02    0.682E-03
RMM:  16    -0.721567109154E+03   -0.14866E-05   -0.24070E-05  2981   0.783E-03    0.157E-03
RMM:  17    -0.721567111220E+03   -0.20654E-05   -0.77990E-06  2216   0.364E-03    0.767E-04
RMM:  18    -0.721567111256E+03   -0.35855E-07   -0.14920E-06  1992   0.164E-03
   1 F= -.72156711E+03 E0= -.72156711E+03  d E =-.721567E+03
 curvature:   0.00 expect dE= 0.000E+00 dE for cont linesearch  0.000E+00
 trial: gam= 0.00000 g(F)=  0.637E+02 g(S)=  0.113E+01 ort = 0.000E+00 (trialstep = 0.100E+01)
 search vector abs. value=  0.648E+02
 bond charge predicted
       N       E                     dE             d eps       ncg     rms          rms(c)
DAV:   1    -0.665205635552E+03    0.56361E+02   -0.57745E+03  3460   0.158E+02    0.691E+01
RMM:   2    -0.666568711041E+03   -0.13631E+01   -0.31579E+02  3036   0.378E+01    0.231E+01
RMM:   3    -0.663133251880E+03    0.34355E+01   -0.30528E+01  3039   0.115E+01    0.208E+01
RMM:   4    -0.661850154290E+03    0.12831E+01   -0.76136E+00  3041   0.492E+00    0.735E+00
RMM:   5    -0.661819365048E+03    0.30789E-01   -0.98189E-01  3069   0.188E+00    0.301E+00
RMM:   6    -0.661818381195E+03    0.98385E-03   -0.24936E-01  3074   0.787E-01    0.463E-01
RMM:   7    -0.661819543956E+03   -0.11628E-02   -0.35391E-02  3073   0.321E-01    0.348E-01
RMM:   8    -0.661820008307E+03   -0.46435E-03   -0.90187E-03  3099   0.141E-01    0.223E-01
RMM:   9    -0.661820331217E+03   -0.32291E-03   -0.18707E-03  3043   0.691E-02    0.123E-01
RMM:  10    -0.661820106001E+03    0.22522E-03   -0.52102E-04  3047   0.358E-02    0.100E-01
RMM:  11    -0.661819998747E+03    0.10725E-03   -0.18153E-04  3059   0.190E-02    0.166E-01
RMM:  12    -0.661820101387E+03   -0.10264E-03   -0.50080E-05  3037   0.114E-02    0.944E-02
RMM:  13    -0.661820089360E+03    0.12027E-04   -0.10346E-05  2504   0.445E-03    0.919E-02
RMM:  14    -0.661820025942E+03    0.63418E-04   -0.10764E-05  2923   0.469E-03    0.820E-02
RMM:  15    -0.661820018788E+03    0.71542E-05   -0.20147E-06  2024   0.214E-03    0.805E-02
RMM:  16    -0.661820019678E+03   -0.88999E-06   -0.32637E-07  1705   0.853E-04
   2 F= -.66182002E+03 E0= -.66182002E+03  d E =0.597471E+02
 trial-energy change:   59.747092  1 .order   34.731549  -64.826006  134.289104
 step:   0.2034(harm=  0.3256)  dis= 0.05053  next Energy=  -727.950084 (dE=-0.638E+01)
 bond charge predicted
       N       E                     dE             d eps       ncg     rms          rms(c)
DAV:   1    -0.739463098538E+03   -0.77643E+02   -0.40101E+03  3108   0.132E+02    0.296E+01
RMM:   2    -0.731020582670E+03    0.84425E+01   -0.10348E+02  3036   0.233E+01    0.127E+01
RMM:   3    -0.727905342868E+03    0.31152E+01   -0.15814E+01  3036   0.776E+00    0.675E+00
RMM:   4    -0.727595927502E+03    0.30942E+00   -0.32297E+00  3036   0.338E+00    0.242E+00
RMM:   5    -0.727602466479E+03   -0.65390E-02   -0.30498E-01  3038   0.117E+00    0.852E-01
RMM:   6    -0.727607134607E+03   -0.46681E-02   -0.68428E-02  3050   0.456E-01    0.201E-01
RMM:   7    -0.727607653438E+03   -0.51883E-03   -0.12282E-02  3048   0.188E-01    0.905E-02
RMM:   8    -0.727607903280E+03   -0.24984E-03   -0.29740E-03  3071   0.841E-02    0.296E-02
RMM:   9    -0.727607924363E+03   -0.21083E-04   -0.55569E-04  3056   0.366E-02    0.116E-02
RMM:  10    -0.727607935154E+03   -0.10791E-04   -0.11364E-04  3065   0.165E-02    0.445E-03
RMM:  11    -0.727607937189E+03   -0.20343E-05   -0.22083E-05  2785   0.683E-03    0.257E-03
RMM:  12    -0.727607937705E+03   -0.51620E-06   -0.48000E-06  2138   0.318E-03
   3 F= -.72760794E+03 E0= -.72760794E+03  d E =-.604083E+01
 curvature:  -0.16 expect dE=-0.157E+01 dE for cont linesearch -0.664E-01
 ZBRENT: interpolating
 opt :   0.1882  next Energy=  -727.647641 (dE=-0.608E+01)
 bond charge predicted
       N       E                     dE             d eps       ncg     rms          rms(c)
DAV:   1    -0.727664702320E+03   -0.56765E-01   -0.18366E+00  3407   0.288E+00    0.531E-01
RMM:   2    -0.727656368567E+03    0.83338E-02   -0.32099E-02  3036   0.397E-01    0.262E-01
RMM:   3    -0.727654811776E+03    0.15568E-02   -0.10683E-02  3036   0.180E-01    0.817E-02
RMM:   4    -0.727654806828E+03    0.49478E-05   -0.78945E-04  3036   0.630E-02    0.476E-02
RMM:   5    -0.727654813905E+03   -0.70762E-05   -0.16710E-04  3038   0.248E-02    0.189E-02
RMM:   6    -0.727654814831E+03   -0.92631E-06   -0.32673E-05  3042   0.103E-02    0.907E-03
RMM:   7    -0.727654815628E+03   -0.79740E-06   -0.60196E-06  2262   0.418E-03
   4 F= -.72765482E+03 E0= -.72765482E+03  d E =-.608770E+01
 curvature:  -0.09 expect dE=-0.777E+00 dE for cont linesearch -0.125E-02
 trial: gam= 0.14173 g(F)=  0.448E+01 g(S)=  0.378E+01 ort =-0.928E+00 (trialstep = 0.838E+00)
 search vector abs. value=  0.930E+01
 bond charge predicted
       N       E                     dE             d eps       ncg     rms          rms(c)
DAV:   1    -0.730229202214E+03   -0.25744E+01   -0.43749E+02  3107   0.448E+01    0.719E+00
RMM:   2    -0.729355371380E+03    0.87383E+00   -0.90724E+00  3036   0.687E+00    0.414E+00
RMM:   3    -0.728996958735E+03    0.35841E+00   -0.23567E+00  3036   0.268E+00    0.185E+00
RMM:   4    -0.728996969712E+03   -0.10978E-04   -0.19373E-01  3037   0.964E-01    0.112E+00
RMM:   5    -0.728998287517E+03   -0.13178E-02   -0.61891E-02  3036   0.441E-01    0.208E-01
RMM:   6    -0.728997490725E+03    0.79679E-03   -0.22666E-02  3042   0.238E-01    0.215E-01
RMM:   7    -0.728997472218E+03    0.18508E-04   -0.27971E-03  3065   0.971E-02    0.684E-02
RMM:   8    -0.728997439716E+03    0.32502E-04   -0.48040E-04  3050   0.357E-02    0.243E-02
RMM:   9    -0.728997440492E+03   -0.77663E-06   -0.91216E-05  3049   0.155E-02    0.621E-03
RMM:  10    -0.728997441159E+03   -0.66686E-06   -0.17951E-05  2682   0.626E-03    0.335E-03
RMM:  11    -0.728997440970E+03    0.18953E-06   -0.33267E-06  2129   0.263E-03
   5 F= -.72899744E+03 E0= -.72899744E+03  d E =-.134263E+01
 trial-energy change:   -1.342625  1 .order   -1.480582   -6.808314    3.847150
 step:   0.5199(harm=  0.5352)  dis= 0.03761  next Energy=  -729.734659 (dE=-0.208E+01)
 bond charge predicted
       N       E                     dE             d eps       ncg     rms          rms(c)
DAV:   1    -0.729922625787E+03   -0.92518E+00   -0.64044E+01  3070   0.169E+01    0.271E+00
RMM:   2    -0.729781043235E+03    0.14158E+00   -0.11902E+00  3036   0.253E+00    0.153E+00
RMM:   3    -0.729732376998E+03    0.48666E-01   -0.40451E-01  3036   0.107E+00    0.512E-01
RMM:   4    -0.729730939873E+03    0.14371E-02   -0.29674E-02  3037   0.379E-01    0.348E-01
RMM:   5    -0.729731173269E+03   -0.23340E-03   -0.11064E-02  3036   0.186E-01    0.957E-02
RMM:   6    -0.729730764903E+03    0.40837E-03   -0.31160E-03  3036   0.944E-02    0.602E-02
RMM:   7    -0.729730798971E+03   -0.34067E-04   -0.49128E-04  3057   0.374E-02    0.271E-02
RMM:   8    -0.729730780137E+03    0.18834E-04   -0.73029E-05  3058   0.144E-02    0.866E-03
RMM:   9    -0.729730781395E+03   -0.12579E-05   -0.23685E-05  3029   0.750E-03    0.316E-03
RMM:  10    -0.729730781441E+03   -0.46337E-07   -0.31735E-06  2062   0.301E-03
   6 F= -.72973078E+03 E0= -.72973078E+03  d E =-.207597E+01
 curvature:  -0.31 expect dE=-0.313E+01 dE for cont linesearch -0.220E-05
 trial: gam= 1.30842 g(F)=  0.851E+01 g(S)=  0.174E+01 ort =-0.819E-02 (trialstep = 0.275E+00)
 search vector abs. value=  0.261E+02
 bond charge predicted
       N       E                     dE             d eps       ncg     rms          rms(c)
DAV:   1    -0.731766443892E+03   -0.20357E+01   -0.11439E+02  3153   0.229E+01    0.393E+00
RMM:   2    -0.731385227123E+03    0.38122E+00   -0.20352E+00  3036   0.319E+00    0.202E+00
RMM:   3    -0.731280553045E+03    0.10467E+00   -0.60505E-01  3036   0.138E+00    0.875E-01
RMM:   4    -0.731278872915E+03    0.16801E-02   -0.52197E-02  3037   0.491E-01    0.464E-01
RMM:   5    -0.731279056478E+03   -0.18356E-03   -0.15440E-02  3038   0.223E-01    0.102E-01
RMM:   6    -0.731279097030E+03   -0.40552E-04   -0.39860E-03  3048   0.108E-01    0.100E-01
RMM:   7    -0.731279097391E+03   -0.36076E-06   -0.61912E-04  3068   0.438E-02    0.288E-02
RMM:   8    -0.731279095811E+03    0.15801E-05   -0.12053E-04  3048   0.181E-02    0.891E-03
RMM:   9    -0.731279096157E+03   -0.34658E-06   -0.19205E-05  2897   0.722E-03    0.260E-03
RMM:  10    -0.731279096359E+03   -0.20177E-06   -0.45660E-06  2155   0.307E-03
   7 F= -.73127910E+03 E0= -.73127910E+03  d E =-.154831E+01
 trial-energy change:   -1.548315  1 .order   -1.548310   -2.817859   -0.278760
 step:   0.3056(harm=  0.3056)  dis= 0.02090  next Energy=  -731.294393 (dE=-0.156E+01)
 bond charge predicted
       N       E                     dE             d eps       ncg     rms          rms(c)
DAV:   1    -0.731300609647E+03   -0.21513E-01   -0.13941E+00  3368   0.251E+00    0.419E-01
RMM:   2    -0.731295956787E+03    0.46529E-02   -0.23855E-02  3036   0.346E-01    0.221E-01
RMM:   3    -0.731294664685E+03    0.12921E-02   -0.77872E-03  3036   0.154E-01    0.822E-02
RMM:   4    -0.731294645033E+03    0.19652E-04   -0.63928E-04  3039   0.546E-02    0.466E-02
RMM:   5    -0.731294643106E+03    0.19266E-05   -0.19247E-04  3039   0.250E-02    0.109E-02
RMM:   6    -0.731294643365E+03   -0.25884E-06   -0.50097E-05  3042   0.122E-02    0.110E-02
RMM:   7    -0.731294642637E+03    0.72800E-06   -0.84493E-06  2489   0.501E-03
   8 F= -.73129464E+03 E0= -.73129464E+03  d E =-.156386E+01
 curvature:  -0.39 expect dE=-0.148E+01 dE for cont linesearch -0.382E-06
 trial: gam= 0.30829 g(F)=  0.350E+01 g(S)=  0.285E+00 ort =-0.506E-02 (trialstep = 0.281E+00)
 search vector abs. value=  0.627E+01
 bond charge predicted
       N       E                     dE             d eps       ncg     rms          rms(c)
DAV:   1    -0.731915385401E+03   -0.62074E+00   -0.24787E+01  3231   0.108E+01    0.194E+00
RMM:   2    -0.731806957864E+03    0.10843E+00   -0.83425E-01  3036   0.203E+00    0.981E-01
RMM:   3    -0.731787785383E+03    0.19172E-01   -0.22151E-01  3036   0.810E-01    0.330E-01
RMM:   4    -0.731788113321E+03   -0.32794E-03   -0.15359E-02  3038   0.280E-01    0.198E-01
RMM:   5    -0.731788067206E+03    0.46116E-04   -0.29977E-03  3039   0.112E-01    0.369E-02
RMM:   6    -0.731788088939E+03   -0.21733E-04   -0.59145E-04  3047   0.445E-02    0.238E-02
RMM:   7    -0.731788090939E+03   -0.20007E-05   -0.12349E-04  3058   0.202E-02    0.639E-03
RMM:   8    -0.731788092287E+03   -0.13479E-05   -0.21257E-05  2995   0.756E-03    0.367E-03
RMM:   9    -0.731788092228E+03    0.59425E-07   -0.41194E-06  2208   0.332E-03
   9 F= -.73178809E+03 E0= -.73178809E+03  d E =-.493450E+00
 trial-energy change:   -0.493450  1 .order   -0.494886   -1.065907    0.076135
 step:   0.2626(harm=  0.2626)  dis= 0.01062  next Energy=  -731.792067 (dE=-0.497E+00)
 bond charge predicted
       N       E                     dE             d eps       ncg     rms          rms(c)
DAV:   1    -0.731791227735E+03   -0.31354E-02   -0.10997E-01  3392   0.717E-01    0.129E-01
RMM:   2    -0.731790763891E+03    0.46384E-03   -0.37465E-03  3036   0.135E-01    0.651E-02
RMM:   3    -0.731790686088E+03    0.77802E-04   -0.97350E-04  3036   0.538E-02    0.221E-02
RMM:   4    -0.731790689090E+03   -0.30021E-05   -0.68751E-05  3039   0.187E-02    0.132E-02
RMM:   5    -0.731790690985E+03   -0.18949E-05   -0.13619E-05  3038   0.754E-03    0.242E-03
RMM:   6    -0.731790691042E+03   -0.56348E-07   -0.26939E-06  2063   0.298E-03
  10 F= -.73179069E+03 E0= -.73179069E+03  d E =-.496048E+00
 curvature:  -0.22 expect dE=-0.122E+00 dE for cont linesearch -0.999E-07
 trial: gam= 0.13961 g(F)=  0.437E+00 g(S)=  0.124E+00 ort =-0.170E-02 (trialstep = 0.278E+00)
 search vector abs. value=  0.683E+00
 bond charge predicted
       N       E                     dE             d eps       ncg     rms          rms(c)
DAV:   1    -0.731911640668E+03   -0.12095E+00   -0.32784E+00  3113   0.398E+00    0.665E-01
RMM:   2    -0.731902870488E+03    0.87702E-02   -0.55819E-02  3036   0.521E-01    0.351E-01
RMM:   3    -0.731900735530E+03    0.21350E-02   -0.15820E-02  3036   0.230E-01    0.108E-01
RMM:   4    -0.731900712108E+03    0.23423E-04   -0.14122E-03  3038   0.812E-02    0.514E-02
RMM:   5    -0.731900729583E+03   -0.17476E-04   -0.33904E-04  3050   0.336E-02    0.172E-02
RMM:   6    -0.731900731622E+03   -0.20388E-05   -0.62573E-05  3049   0.139E-02    0.728E-03
RMM:   7    -0.731900732439E+03   -0.81637E-06   -0.12842E-05  2623   0.570E-03    0.247E-03
RMM:   8    -0.731900732540E+03   -0.10119E-06   -0.21160E-06  2008   0.240E-03
  11 F= -.73190073E+03 E0= -.73190073E+03  d E =-.110041E+00
 trial-energy change:   -0.110041  1 .order   -0.109958   -0.155775   -0.064140
 step:   0.4720(harm=  0.4720)  dis= 0.00706  next Energy=  -731.923096 (dE=-0.132E+00)
 bond charge predicted
       N       E                     dE             d eps       ncg     rms          rms(c)
DAV:   1    -0.731928653379E+03   -0.27921E-01   -0.16069E+00  3259   0.278E+00    0.467E-01
RMM:   2    -0.731924295255E+03    0.43581E-02   -0.27499E-02  3036   0.365E-01    0.245E-01
RMM:   3    -0.731923251179E+03    0.10441E-02   -0.77830E-03  3036   0.161E-01    0.766E-02
RMM:   4    -0.731923239685E+03    0.11494E-04   -0.69343E-04  3038   0.569E-02    0.363E-02
RMM:   5    -0.731923248185E+03   -0.85002E-05   -0.16593E-04  3048   0.236E-02    0.120E-02
RMM:   6    -0.731923249203E+03   -0.10177E-05   -0.31299E-05  3048   0.978E-03    0.518E-03
RMM:   7    -0.731923249591E+03   -0.38870E-06   -0.62849E-06  2293   0.401E-03
  12 F= -.73192325E+03 E0= -.73192325E+03  d E =-.132559E+00
 curvature:  -0.29 expect dE=-0.276E+00 dE for cont linesearch -0.158E-07
 trial: gam= 1.70486 g(F)=  0.868E+00 g(S)=  0.914E-01 ort =-0.194E-03 (trialstep = 0.734E-01)
 search vector abs. value=  0.294E+01
 bond charge predicted
       N       E                     dE             d eps       ncg     rms          rms(c)
DAV:   1    -0.731992667603E+03   -0.69418E-01   -0.92326E-01  3144   0.212E+00    0.248E-01
RMM:   2    -0.731991952363E+03    0.71524E-03   -0.89508E-03  3036   0.209E-01    0.138E-01
RMM:   3    -0.731991741416E+03    0.21095E-03   -0.22155E-03  3036   0.847E-02    0.429E-02
RMM:   4    -0.731991746132E+03   -0.47152E-05   -0.24081E-04  3045   0.302E-02    0.174E-02
RMM:   5    -0.731991750923E+03   -0.47915E-05   -0.60074E-05  3070   0.124E-02    0.512E-03
RMM:   6    -0.731991751248E+03   -0.32525E-06   -0.96100E-06  2462   0.499E-03
  13 F= -.73199175E+03 E0= -.73199175E+03  d E =-.685017E-01
 ZBRENT: can't locate minimum, use default step
 trial-energy change:   -0.068502  1 .order   -0.068445   -0.070421   -0.066470
 step:   0.2937(harm=  1.3088)  dis= 0.01068  next Energy=  -732.550781 (dE=-0.628E+00)
 bond charge predicted
       N       E                     dE             d eps       ncg     rms          rms(c)
DAV:   1    -0.732181636290E+03   -0.18989E+00   -0.83133E+00  3074   0.635E+00    0.746E-01
RMM:   2    -0.732174862056E+03    0.67742E-02   -0.81066E-02  3036   0.627E-01    0.414E-01
RMM:   3    -0.732172935508E+03    0.19265E-02   -0.20060E-02  3036   0.255E-01    0.129E-01
RMM:   4    -0.732172967608E+03   -0.32100E-04   -0.21442E-03  3043   0.908E-02    0.514E-02
RMM:   5    -0.732173010305E+03   -0.42697E-04   -0.53747E-04  3065   0.374E-02    0.151E-02
RMM:   6    -0.732173014672E+03   -0.43663E-05   -0.88449E-05  3059   0.152E-02    0.649E-03
RMM:   7    -0.732173016454E+03   -0.17829E-05   -0.21155E-05  2761   0.653E-03    0.221E-03
RMM:   8    -0.732173016653E+03   -0.19898E-06   -0.33453E-06  2065   0.266E-03
  14 F= -.73217302E+03 E0= -.73217302E+03  d E =-.249767E+00
 curvature:  -0.65 expect dE=-0.552E+00 dE for cont linesearch -0.120E+00
 ZBRENT: increasing intervall
 opt :   0.7343  next Energy=  -732.422888 (dE=-0.500E+00)
 bond charge predicted
       N       E                     dE             d eps       ncg     rms          rms(c)
DAV:   1    -0.732452608255E+03   -0.27959E+00   -0.33283E+01  3114   0.127E+01    0.150E+00
RMM:   2    -0.732422527356E+03    0.30081E-01   -0.33266E-01  3036   0.127E+00    0.829E-01
RMM:   3    -0.732414724664E+03    0.78027E-02   -0.81324E-02  3036   0.514E-01    0.266E-01
RMM:   4    -0.732414784086E+03   -0.59422E-04   -0.85060E-03  3041   0.183E-01    0.103E-01
RMM:   5    -0.732414951359E+03   -0.16727E-03   -0.21545E-03  3064   0.755E-02    0.299E-02
RMM:   6    -0.732414969784E+03   -0.18425E-04   -0.35905E-04  3060   0.306E-02    0.131E-02
RMM:   7    -0.732414976903E+03   -0.71191E-05   -0.82949E-05  3063   0.131E-02    0.456E-03
RMM:   8    -0.732414977686E+03   -0.78338E-06   -0.13309E-05  2536   0.535E-03    0.193E-03
RMM:   9    -0.732414977864E+03   -0.17819E-06   -0.31833E-06  2059   0.230E-03
  15 F= -.73241498E+03 E0= -.73241498E+03  d E =-.491728E+00
 curvature:  -1.36 expect dE=-0.266E+01 dE for cont linesearch -0.558E-01
 ZBRENT: increasing intervall
 opt :   1.6156  next Energy=  -732.379474 (dE=-0.456E+00)
 bond charge predicted
       N       E                     dE             d eps       ncg     rms          rms(c)
DAV:   1    -0.732468631525E+03   -0.53654E-01   -0.13345E+02  3093   0.254E+01    0.310E+00
RMM:   2    -0.732322365259E+03    0.14627E+00   -0.14500E+00  3036   0.262E+00    0.167E+00
RMM:   3    -0.732290198693E+03    0.32167E-01   -0.33606E-01  3036   0.105E+00    0.596E-01
RMM:   4    -0.732289844641E+03    0.35405E-03   -0.34826E-02  3040   0.374E-01    0.223E-01
RMM:   5    -0.732290466463E+03   -0.62182E-03   -0.86730E-03  3061   0.154E-01    0.639E-02
RMM:   6    -0.732290545545E+03   -0.79082E-04   -0.15688E-03  3062   0.638E-02    0.286E-02
RMM:   7    -0.732290573708E+03   -0.28162E-04   -0.33722E-04  3065   0.269E-02    0.104E-02
RMM:   8    -0.732290576417E+03   -0.27093E-05   -0.52471E-05  3036   0.109E-02    0.390E-03
RMM:   9    -0.732290577394E+03   -0.97652E-06   -0.13815E-05  2377   0.484E-03    0.142E-03
RMM:  10    -0.732290577663E+03   -0.26934E-06   -0.27747E-06  2047   0.211E-03
  16 F= -.73229058E+03 E0= -.73229058E+03  d E =-.367328E+00
 curvature:   0.86 expect dE= 0.896E+01 dE for cont linesearch  0.144E+00
 ZBRENT: bracketing found
 ZBRENT: interpolating
 opt :   1.0269  next Energy=  -732.465866 (dE=-0.543E+00)
 bond charge predicted
       N       E                     dE             d eps       ncg     rms          rms(c)
DAV:   1    -0.732556086367E+03   -0.26551E+00   -0.59332E+01  3041   0.170E+01    0.213E+00
RMM:   2    -0.732486634554E+03    0.69452E-01   -0.62542E-01  3036   0.175E+00    0.111E+00
RMM:   3    -0.732471423422E+03    0.15211E-01   -0.14897E-01  3036   0.697E-01    0.419E-01
RMM:   4    -0.732471380162E+03    0.43260E-04   -0.15152E-02  3039   0.248E-01    0.166E-01
RMM:   5    -0.732471679877E+03   -0.29971E-03   -0.38278E-03  3061   0.103E-01    0.463E-02
RMM:   6    -0.732471718025E+03   -0.38148E-04   -0.67894E-04  3057   0.426E-02    0.205E-02
RMM:   7    -0.732471734370E+03   -0.16344E-04   -0.15981E-04  3073   0.181E-02    0.699E-03
RMM:   8    -0.732471736227E+03   -0.18575E-05   -0.22791E-05  2966   0.733E-03    0.257E-03
RMM:   9    -0.732471736859E+03   -0.63206E-06   -0.62285E-06  2138   0.329E-03
  17 F= -.73247174E+03 E0= -.73247174E+03  d E =-.548487E+00
 curvature:  -0.31 expect dE=-0.115E+01 dE for cont linesearch -0.176E-03
 trial: gam= 3.78524 g(F)=  0.327E+01 g(S)=  0.494E+00 ort = 0.411E-01 (trialstep = 0.168E-01)
 search vector abs. value=  0.463E+02
 bond charge predicted
       N       E                     dE             d eps       ncg     rms          rms(c)
DAV:   1    -0.732537128959E+03   -0.65393E-01   -0.61621E-01  3164   0.174E+00    0.223E-01
RMM:   2    -0.732536787608E+03    0.34135E-03   -0.75408E-03  3036   0.191E-01    0.125E-01
RMM:   3    -0.732536646855E+03    0.14075E-03   -0.16159E-03  3036   0.734E-02    0.386E-02
RMM:   4    -0.732536650416E+03   -0.35610E-05   -0.17952E-04  3042   0.265E-02    0.147E-02
RMM:   5    -0.732536652458E+03   -0.20424E-05   -0.42321E-05  3071   0.108E-02    0.431E-03
RMM:   6    -0.732536652627E+03   -0.16911E-06   -0.62743E-06  2293   0.420E-03
  18 F= -.73253665E+03 E0= -.73253665E+03  d E =-.649158E-01
 ZBRENT: can't locate minimum, use default step
 trial-energy change:   -0.064916  1 .order   -0.064936   -0.065917   -0.063955
 step:   0.0672(harm=  0.5649)  dis= 0.00737  next Energy=  -733.579296 (dE=-0.111E+01)
 bond charge predicted
       N       E                     dE             d eps       ncg     rms          rms(c)
DAV:   1    -0.732724142956E+03   -0.18749E+00   -0.55478E+00  3056   0.522E+00    0.670E-01
RMM:   2    -0.732720817457E+03    0.33255E-02   -0.68406E-02  3036   0.574E-01    0.375E-01
RMM:   3    -0.732719584487E+03    0.12330E-02   -0.14630E-02  3036   0.221E-01    0.117E-01
RMM:   4    -0.732719616698E+03   -0.32210E-04   -0.15978E-03  3040   0.797E-02    0.439E-02
RMM:   5    -0.732719640286E+03   -0.23588E-04   -0.37130E-04  3066   0.322E-02    0.129E-02
RMM:   6    -0.732719643559E+03   -0.32734E-05   -0.62590E-05  3064   0.129E-02    0.621E-03
RMM:   7    -0.732719644131E+03   -0.57183E-06   -0.13355E-05  2569   0.551E-03    0.172E-03
RMM:   8    -0.732719644172E+03   -0.41018E-07   -0.20928E-06  2020   0.223E-03
  19 F= -.73271964E+03 E0= -.73271964E+03  d E =-.247907E+00
 curvature:  -0.58 expect dE=-0.186E+01 dE for cont linesearch -0.151E+00
 ZBRENT: increasing intervall
 opt :   0.1681  next Energy=  -733.031997 (dE=-0.560E+00)
 bond charge predicted
       N       E                     dE             d eps       ncg     rms          rms(c)
DAV:   1    -0.733048575956E+03   -0.32893E+00   -0.22178E+01  3072   0.104E+01    0.134E+00
RMM:   2    -0.733032605990E+03    0.15970E-01   -0.28057E-01  3036   0.116E+00    0.746E-01
RMM:   3    -0.733027709878E+03    0.48961E-02   -0.59570E-02  3036   0.446E-01    0.244E-01
RMM:   4    -0.733027783957E+03   -0.74079E-04   -0.63609E-03  3036   0.161E-01    0.875E-02
RMM:   5    -0.733027891697E+03   -0.10774E-03   -0.15427E-03  3072   0.647E-02    0.260E-02
RMM:   6    -0.733027904851E+03   -0.13154E-04   -0.24138E-04  3060   0.257E-02    0.119E-02
RMM:   7    -0.733027908286E+03   -0.34351E-05   -0.52481E-05  3059   0.110E-02    0.365E-03
RMM:   8    -0.733027908661E+03   -0.37495E-06   -0.83506E-06  2321   0.450E-03
  20 F= -.73302791E+03 E0= -.73302791E+03  d E =-.556172E+00
 curvature:  -1.21 expect dE=-0.333E+01 dE for cont linesearch -0.182E+00
 ZBRENT: increasing intervall
 opt :   0.3698  next Energy=  -733.394554 (dE=-0.923E+00)
 bond charge predicted
       N       E                     dE             d eps       ncg     rms          rms(c)
DAV:   1    -0.733452213908E+03   -0.42431E+00   -0.88782E+01  3127   0.209E+01    0.274E+00
RMM:   2    -0.733362470495E+03    0.89743E-01   -0.12116E+00  3036   0.238E+00    0.148E+00
RMM:   3    -0.733342967062E+03    0.19503E-01   -0.24954E-01  3036   0.913E-01    0.531E-01
RMM:   4    -0.733342766330E+03    0.20073E-03   -0.26417E-02  3036   0.329E-01    0.179E-01
RMM:   5    -0.733343212917E+03   -0.44659E-03   -0.63287E-03  3071   0.131E-01    0.534E-02
RMM:   6    -0.733343265209E+03   -0.52292E-04   -0.99471E-04  3055   0.529E-02    0.232E-02
RMM:   7    -0.733343283149E+03   -0.17940E-04   -0.22591E-04  3061   0.227E-02    0.868E-03
RMM:   8    -0.733343285116E+03   -0.19668E-05   -0.38850E-05  3014   0.947E-03    0.347E-03
RMM:   9    -0.733343285692E+03   -0.57583E-06   -0.94364E-06  2280   0.409E-03
  21 F= -.73334329E+03 E0= -.73334329E+03  d E =-.871549E+00
 curvature:  -2.44 expect dE=-0.762E+01 dE for cont linesearch -0.440E-02
 trial: gam= 0.22702 g(F)=  0.302E+01 g(S)=  0.929E-01 ort = 0.289E+00 (trialstep = 0.874E-01)
 search vector abs. value=  0.563E+01
 bond charge predicted
       N       E                     dE             d eps       ncg     rms          rms(c)
DAV:   1    -0.733589503613E+03   -0.24622E+00   -0.21565E+00  3304   0.319E+00    0.535E-01
RMM:   2    -0.733583298272E+03    0.62053E-02   -0.46609E-02  3036   0.484E-01    0.288E-01
RMM:   3    -0.733581657128E+03    0.16411E-02   -0.13607E-02  3036   0.208E-01    0.805E-02
RMM:   4    -0.733581600652E+03    0.56475E-04   -0.10631E-03  3038   0.731E-02    0.431E-02
RMM:   5    -0.733581598134E+03    0.25187E-05   -0.26250E-04  3037   0.313E-02    0.110E-02
RMM:   6    -0.733581598283E+03   -0.14956E-06   -0.50077E-05  3041   0.135E-02    0.733E-03
RMM:   7    -0.733581597952E+03    0.33111E-06   -0.93510E-06  2508   0.539E-03
  22 F= -.73358160E+03 E0= -.73358160E+03  d E =-.238312E+00
 trial-energy change:   -0.238312  1 .order   -0.238343   -0.278112   -0.198573
 step:   0.3056(harm=  0.3056)  dis= 0.01531  next Energy=  -733.829503 (dE=-0.486E+00)
 bond charge predicted
       N       E                     dE             d eps       ncg     rms          rms(c)
DAV:   1    -0.733879551672E+03   -0.29795E+00   -0.13447E+01  3124   0.796E+00    0.134E+00
RMM:   2    -0.733839600492E+03    0.39951E-01   -0.29276E-01  3036   0.121E+00    0.720E-01
RMM:   3    -0.733829440169E+03    0.10160E-01   -0.85398E-02  3036   0.522E-01    0.203E-01
RMM:   4    -0.733829089468E+03    0.35070E-03   -0.66112E-03  3036   0.183E-01    0.108E-01
RMM:   5    -0.733829093859E+03   -0.43906E-05   -0.16594E-03  3040   0.785E-02    0.273E-02
RMM:   6    -0.733829094571E+03   -0.71184E-06   -0.31249E-04  3040   0.338E-02    0.181E-02
RMM:   7    -0.733829095187E+03   -0.61622E-06   -0.57708E-05  3077   0.135E-02    0.386E-03
RMM:   8    -0.733829095211E+03   -0.23725E-07   -0.96657E-06  2670   0.512E-03
  23 F= -.73382910E+03 E0= -.73382910E+03  d E =-.485810E+00
 curvature:  -0.27 expect dE=-0.502E+00 dE for cont linesearch -0.460E-06
 trial: gam= 0.60536 g(F)=  0.176E+01 g(S)=  0.896E-01 ort =-0.309E-02 (trialstep = 0.131E+00)
 search vector abs. value=  0.391E+01
 bond charge predicted
       N       E                     dE             d eps       ncg     rms          rms(c)
DAV:   1    -0.734042382973E+03   -0.21329E+00   -0.35095E+00  3152   0.401E+00    0.604E-01
RMM:   2    -0.734034944703E+03    0.74383E-02   -0.56050E-02  3036   0.542E-01    0.322E-01
RMM:   3    -0.734033020390E+03    0.19243E-02   -0.16331E-02  3036   0.223E-01    0.898E-02
RMM:   4    -0.734032990223E+03    0.30166E-04   -0.13189E-03  3043   0.784E-02    0.477E-02
RMM:   5    -0.734032995341E+03   -0.51172E-05   -0.33224E-04  3046   0.336E-02    0.121E-02
RMM:   6    -0.734032996475E+03   -0.11341E-05   -0.57244E-05  3055   0.135E-02    0.764E-03
RMM:   7    -0.734032996690E+03   -0.21550E-06   -0.11273E-05  2738   0.561E-03    0.163E-03
RMM:   8    -0.734032996699E+03   -0.89134E-08   -0.18457E-06  2031   0.219E-03
  24 F= -.73403300E+03 E0= -.73403300E+03  d E =-.203901E+00
 trial-energy change:   -0.203901  1 .order   -0.203967   -0.242780   -0.165153
 step:   0.4099(harm=  0.4099)  dis= 0.01878  next Energy=  -734.208745 (dE=-0.380E+00)
 bond charge predicted
       N       E                     dE             d eps       ncg     rms          rms(c)
DAV:   1    -0.734252162713E+03   -0.21917E+00   -0.15880E+01  3066   0.854E+00    0.128E+00
RMM:   2    -0.734218782163E+03    0.33381E-01   -0.25463E-01  3036   0.116E+00    0.685E-01
RMM:   3    -0.734210054016E+03    0.87281E-02   -0.72792E-02  3036   0.472E-01    0.192E-01
RMM:   4    -0.734209946194E+03    0.10782E-03   -0.59284E-03  3043   0.166E-01    0.101E-01
RMM:   5    -0.734209977191E+03   -0.30996E-04   -0.15001E-03  3049   0.712E-02    0.257E-02
RMM:   6    -0.734209982744E+03   -0.55535E-05   -0.25357E-04  3056   0.284E-02    0.162E-02
RMM:   7    -0.734209984312E+03   -0.15676E-05   -0.46682E-05  3049   0.118E-02    0.335E-03
RMM:   8    -0.734209984575E+03   -0.26306E-06   -0.86931E-06  2396   0.468E-03
  25 F= -.73420998E+03 E0= -.73420998E+03  d E =-.380889E+00
 curvature:  -0.43 expect dE=-0.634E+00 dE for cont linesearch -0.198E-04
 trial: gam= 0.77357 g(F)=  0.140E+01 g(S)=  0.612E-01 ort = 0.134E-01 (trialstep = 0.187E+00)
 search vector abs. value=  0.383E+01
 bond charge predicted
       N       E                     dE             d eps       ncg     rms          rms(c)
DAV:   1    -0.734465490197E+03   -0.25551E+00   -0.87940E+00  3134   0.626E+00    0.786E-01
RMM:   2    -0.734452144325E+03    0.13346E-01   -0.10959E-01  3036   0.731E-01    0.407E-01
RMM:   3    -0.734449336757E+03    0.28076E-02   -0.27462E-02  3036   0.295E-01    0.146E-01
RMM:   4    -0.734449383570E+03   -0.46813E-04   -0.25023E-03  3039   0.104E-01    0.732E-02
RMM:   5    -0.734449422573E+03   -0.39003E-04   -0.66253E-04  3054   0.442E-02    0.191E-02
RMM:   6    -0.734449427905E+03   -0.53315E-05   -0.11578E-04  3053   0.178E-02    0.110E-02
RMM:   7    -0.734449429755E+03   -0.18500E-05   -0.23394E-05  2989   0.748E-03    0.251E-03
RMM:   8    -0.734449429964E+03   -0.20941E-06   -0.38368E-06  2116   0.298E-03
  26 F= -.73444943E+03 E0= -.73444943E+03  d E =-.239445E+00
 trial-energy change:   -0.239445  1 .order   -0.239474   -0.275382   -0.203565
 step:   0.7163(harm=  0.7163)  dis= 0.04159  next Energy=  -734.737962 (dE=-0.528E+00)
 bond charge predicted
       N       E                     dE             d eps       ncg     rms          rms(c)
DAV:   1    -0.734873372697E+03   -0.42394E+00   -0.70603E+01  3061   0.177E+01    0.220E+00
RMM:   2    -0.734764258838E+03    0.10911E+00   -0.87281E-01  3036   0.207E+00    0.114E+00
RMM:   3    -0.734742319258E+03    0.21940E-01   -0.22121E-01  3036   0.833E-01    0.396E-01
RMM:   4    -0.734742641426E+03   -0.32217E-03   -0.20085E-02  3038   0.293E-01    0.195E-01
RMM:   5    -0.734742951794E+03   -0.31037E-03   -0.54500E-03  3057   0.125E-01    0.491E-02
RMM:   6    -0.734742991873E+03   -0.40079E-04   -0.85889E-04  3050   0.498E-02    0.284E-02
RMM:   7    -0.734743006966E+03   -0.15093E-04   -0.19303E-04  3057   0.214E-02    0.670E-03
RMM:   8    -0.734743008859E+03   -0.18925E-05   -0.29686E-05  3017   0.849E-03    0.320E-03
RMM:   9    -0.734743009453E+03   -0.59443E-06   -0.79065E-06  2249   0.374E-03
  27 F= -.73474301E+03 E0= -.73474301E+03  d E =-.533025E+00
 curvature:  -0.93 expect dE=-0.321E+01 dE for cont linesearch -0.145E-03
 trial: gam= 2.37115 g(F)=  0.332E+01 g(S)=  0.132E+00 ort = 0.245E-01 (trialstep = 0.447E-01)
 search vector abs. value=  0.251E+02
 bond charge predicted
       N       E                     dE             d eps       ncg     rms          rms(c)
DAV:   1    -0.734897169858E+03   -0.15416E+00   -0.28996E+00  3304   0.357E+00    0.437E-01
RMM:   2    -0.734894173372E+03    0.29965E-02   -0.28376E-02  3036   0.364E-01    0.235E-01
RMM:   3    -0.734893563780E+03    0.60959E-03   -0.68999E-03  3036   0.144E-01    0.762E-02
RMM:   4    -0.734893571805E+03   -0.80248E-05   -0.78162E-04  3046   0.518E-02    0.314E-02
RMM:   5    -0.734893582861E+03   -0.11056E-04   -0.18974E-04  3054   0.218E-02    0.841E-03
RMM:   6    -0.734893584834E+03   -0.19733E-05   -0.31616E-05  3015   0.855E-03    0.437E-03
RMM:   7    -0.734893585157E+03   -0.32309E-06   -0.65656E-06  2217   0.372E-03
  28 F= -.73489359E+03 E0= -.73489359E+03  d E =-.150576E+00
 ZBRENT: can't locate minimum, use default step
 trial-energy change:   -0.150576  1 .order   -0.150506   -0.156796   -0.144215
 step:   0.1786(harm=  0.5565)  dis= 0.03104  next Energy=  -735.720073 (dE=-0.977E+00)
 bond charge predicted
       N       E                     dE             d eps       ncg     rms          rms(c)
DAV:   1    -0.735295119630E+03   -0.40153E+00   -0.26127E+01  3071   0.107E+01    0.131E+00
RMM:   2    -0.735269183219E+03    0.25936E-01   -0.25838E-01  3037   0.109E+00    0.706E-01
RMM:   3    -0.735263628279E+03    0.55549E-02   -0.61398E-02  3036   0.430E-01    0.224E-01
RMM:   4    -0.735263690213E+03   -0.61934E-04   -0.68820E-03  3046   0.154E-01    0.940E-02
RMM:   5    -0.735263796825E+03   -0.10661E-03   -0.16825E-03  3054   0.652E-02    0.254E-02
RMM:   6    -0.735263815075E+03   -0.18250E-04   -0.28403E-04  3055   0.255E-02    0.134E-02
RMM:   7    -0.735263819399E+03   -0.43239E-05   -0.58156E-05  3059   0.111E-02    0.302E-03
RMM:   8    -0.735263820043E+03   -0.64465E-06   -0.10183E-05  2315   0.445E-03    0.171E-03
RMM:   9    -0.735263820181E+03   -0.13806E-06   -0.20835E-06  2030   0.185E-03
  29 F= -.73526382E+03 E0= -.73526382E+03  d E =-.520811E+00
 curvature:  -0.90 expect dE=-0.182E+01 dE for cont linesearch -0.186E+00
 ZBRENT: increasing intervall
 opt :   0.4466  next Energy=  -735.614600 (dE=-0.872E+00)
 bond charge predicted
       N       E                     dE             d eps       ncg     rms          rms(c)
DAV:   1    -0.735683125343E+03   -0.41931E+00   -0.10466E+02  3069   0.214E+01    0.262E+00
RMM:   2    -0.735583935013E+03    0.99190E-01   -0.10378E+00  3036   0.221E+00    0.142E+00
RMM:   3    -0.735560610666E+03    0.23324E-01   -0.24742E-01  3036   0.861E-01    0.449E-01
RMM:   4    -0.735560882719E+03   -0.27205E-03   -0.29034E-02  3046   0.309E-01    0.199E-01
RMM:   5    -0.735561323720E+03   -0.44100E-03   -0.72552E-03  3063   0.132E-01    0.558E-02
RMM:   6    -0.735561386945E+03   -0.63225E-04   -0.10918E-03  3049   0.508E-02    0.300E-02
RMM:   7    -0.735561405659E+03   -0.18714E-04   -0.23816E-04  3069   0.223E-02    0.611E-03
RMM:   8    -0.735561407970E+03   -0.23108E-05   -0.37489E-05  3019   0.886E-03    0.336E-03
RMM:   9    -0.735561408637E+03   -0.66729E-06   -0.91632E-06  2233   0.378E-03
  30 F= -.73556141E+03 E0= -.73556141E+03  d E =-.818399E+00
 curvature:  -1.71 expect dE=-0.586E+01 dE for cont linesearch -0.185E-02
 trial: gam= 0.87210 g(F)=  0.330E+01 g(S)=  0.128E+00 ort =-0.165E+00 (trialstep = 0.125E+00)
 search vector abs. value=  0.222E+02
 bond charge predicted
       N       E                     dE             d eps       ncg     rms          rms(c)
DAV:   1    -0.735918078333E+03   -0.35667E+00   -0.21945E+01  3179   0.979E+00    0.121E+00
RMM:   2    -0.735890190076E+03    0.27888E-01   -0.25910E-01  3036   0.110E+00    0.636E-01
RMM:   3    -0.735884287940E+03    0.59021E-02   -0.58996E-02  3036   0.428E-01    0.206E-01
RMM:   4    -0.735884403952E+03   -0.11601E-03   -0.67151E-03  3048   0.153E-01    0.854E-02
RMM:   5    -0.735884478143E+03   -0.74191E-04   -0.14266E-03  3053   0.625E-02    0.257E-02
RMM:   6    -0.735884493428E+03   -0.15285E-04   -0.25056E-04  3055   0.248E-02    0.134E-02
RMM:   7    -0.735884496576E+03   -0.31482E-05   -0.51241E-05  3058   0.109E-02    0.320E-03
RMM:   8    -0.735884496908E+03   -0.33136E-06   -0.82768E-06  2342   0.431E-03
  31 F= -.73588450E+03 E0= -.73588450E+03  d E =-.323088E+00
 trial-energy change:   -0.323088  1 .order   -0.323002   -0.410938   -0.235065
 step:   0.2922(harm=  0.2922)  dis= 0.04157  next Energy=  -736.041499 (dE=-0.480E+00)
 bond charge predicted
       N       E                     dE             d eps       ncg     rms          rms(c)
DAV:   1    -0.736095000348E+03   -0.21050E+00   -0.39137E+01  3095   0.131E+01    0.161E+00
RMM:   2    -0.736048458724E+03    0.46542E-01   -0.45858E-01  3036   0.146E+00    0.847E-01
RMM:   3    -0.736038006573E+03    0.10452E-01   -0.10185E-01  3036   0.565E-01    0.269E-01
RMM:   4    -0.736038257972E+03   -0.25140E-03   -0.12149E-02  3048   0.202E-01    0.110E-01
RMM:   5    -0.736038395178E+03   -0.13721E-03   -0.25152E-03  3054   0.820E-02    0.346E-02
RMM:   6    -0.736038425453E+03   -0.30275E-04   -0.47139E-04  3061   0.326E-02    0.174E-02
RMM:   7    -0.736038431295E+03   -0.58413E-05   -0.86750E-05  3057   0.142E-02    0.425E-03
RMM:   8    -0.736038432030E+03   -0.73494E-06   -0.15584E-05  2618   0.573E-03    0.206E-03
RMM:   9    -0.736038432261E+03   -0.23161E-06   -0.32594E-06  2080   0.245E-03
  32 F= -.73603843E+03 E0= -.73603843E+03  d E =-.477024E+00
 curvature:  -0.99 expect dE=-0.111E+01 dE for cont linesearch -0.784E-04
 trial: gam= 0.10041 g(F)=  0.561E+00 g(S)=  0.562E+00 ort =-0.420E-01 (trialstep = 0.158E+00)
 search vector abs. value=  0.134E+01
 bond charge predicted
       N       E                     dE             d eps       ncg     rms          rms(c)
DAV:   1    -0.736192127473E+03   -0.15370E+00   -0.16018E+00  3352   0.280E+00    0.503E-01
RMM:   2    -0.736185956341E+03    0.61711E-02   -0.32637E-02  3036   0.401E-01    0.258E-01
RMM:   3    -0.736184558728E+03    0.13976E-02   -0.99247E-03  3036   0.177E-01    0.726E-02
RMM:   4    -0.736184522540E+03    0.36188E-04   -0.78270E-04  3036   0.614E-02    0.388E-02
RMM:   5    -0.736184520658E+03    0.18815E-05   -0.19767E-04  3041   0.255E-02    0.942E-03
RMM:   6    -0.736184521431E+03   -0.77300E-06   -0.36360E-05  3054   0.107E-02    0.590E-03
RMM:   7    -0.736184521222E+03    0.20940E-06   -0.71251E-06  2447   0.454E-03
  33 F= -.73618452E+03 E0= -.73618452E+03  d E =-.146089E+00
 trial-energy change:   -0.146089  1 .order   -0.146021   -0.177344   -0.114698
 step:   0.4486(harm=  0.4486)  dis= 0.00999  next Energy=  -736.289451 (dE=-0.251E+00)
 bond charge predicted
       N       E                     dE             d eps       ncg     rms          rms(c)
DAV:   1    -0.736315017346E+03   -0.13050E+00   -0.53616E+00  3179   0.512E+00    0.921E-01
RMM:   2    -0.736294267574E+03    0.20750E-01   -0.10811E-01  3036   0.732E-01    0.472E-01
RMM:   3    -0.736289582580E+03    0.46850E-02   -0.33130E-02  3036   0.323E-01    0.132E-01
RMM:   4    -0.736289463311E+03    0.11927E-03   -0.25818E-03  3036   0.112E-01    0.702E-02
RMM:   5    -0.736289457868E+03    0.54427E-05   -0.64548E-04  3040   0.463E-02    0.169E-02
RMM:   6    -0.736289460410E+03   -0.25415E-05   -0.11656E-04  3053   0.194E-02    0.106E-02
RMM:   7    -0.736289459955E+03    0.45522E-06   -0.22568E-05  3062   0.822E-03    0.267E-03
RMM:   8    -0.736289460177E+03   -0.22267E-06   -0.39219E-06  2145   0.326E-03
  34 F= -.73628946E+03 E0= -.73628946E+03  d E =-.251028E+00
 curvature:  -0.27 expect dE=-0.174E+00 dE for cont linesearch -0.320E-06
 trial: gam= 0.58272 g(F)=  0.625E+00 g(S)=  0.232E-01 ort =-0.126E-02 (trialstep = 0.216E+00)
 search vector abs. value=  0.110E+01
 bond charge predicted
       N       E                     dE             d eps       ncg     rms          rms(c)
DAV:   1    -0.736399053656E+03   -0.10959E+00   -0.25580E+00  3163   0.352E+00    0.474E-01
RMM:   2    -0.736395806347E+03    0.32473E-02   -0.39129E-02  3036   0.448E-01    0.261E-01
RMM:   3    -0.736394501089E+03    0.13053E-02   -0.11088E-02  3036   0.191E-01    0.700E-02
RMM:   4    -0.736394507807E+03   -0.67177E-05   -0.90166E-04  3040   0.651E-02    0.432E-02
RMM:   5    -0.736394514563E+03   -0.67563E-05   -0.24487E-04  3045   0.278E-02    0.108E-02
RMM:   6    -0.736394514636E+03   -0.72312E-07   -0.47262E-05  3053   0.119E-02    0.821E-03
RMM:   7    -0.736394514889E+03   -0.25386E-06   -0.88054E-06  2439   0.482E-03
  35 F= -.73639451E+03 E0= -.73639451E+03  d E =-.105055E+00
 trial-energy change:   -0.105055  1 .order   -0.105247   -0.140173   -0.070322
 step:   0.4344(harm=  0.4344)  dis= 0.01024  next Energy=  -736.430105 (dE=-0.141E+00)
 bond charge predicted
       N       E                     dE             d eps       ncg     rms          rms(c)
DAV:   1    -0.736435198981E+03   -0.40684E-01   -0.25884E+00  3160   0.354E+00    0.474E-01
RMM:   2    -0.736431978941E+03    0.32200E-02   -0.39466E-02  3036   0.450E-01    0.261E-01
RMM:   3    -0.736430674097E+03    0.13048E-02   -0.11104E-02  3036   0.192E-01    0.698E-02
RMM:   4    -0.736430682003E+03   -0.79059E-05   -0.90793E-04  3040   0.652E-02    0.430E-02
RMM:   5    -0.736430689142E+03   -0.71389E-05   -0.24682E-04  3048   0.278E-02    0.108E-02
RMM:   6    -0.736430689165E+03   -0.22696E-07   -0.44930E-05  3051   0.118E-02    0.815E-03
RMM:   7    -0.736430689372E+03   -0.20723E-06   -0.87562E-06  2428   0.480E-03
  36 F= -.73643069E+03 E0= -.73643069E+03  d E =-.141229E+00
 curvature:  -0.37 expect dE=-0.251E+00 dE for cont linesearch -0.218E-04
 trial: gam= 1.03875 g(F)=  0.660E+00 g(S)=  0.196E-01 ort = 0.806E-02 (trialstep = 0.152E+00)
 search vector abs. value=  0.189E+01
 bond charge predicted
       N       E                     dE             d eps       ncg     rms          rms(c)
DAV:   1    -0.736515270507E+03   -0.84581E-01   -0.20569E+00  3129   0.306E+00    0.420E-01
RMM:   2    -0.736513134153E+03    0.21364E-02   -0.36251E-02  3036   0.427E-01    0.225E-01
RMM:   3    -0.736512188382E+03    0.94577E-03   -0.84425E-03  3036   0.173E-01    0.571E-02
RMM:   4    -0.736512206361E+03   -0.17979E-04   -0.71620E-04  3038   0.588E-02    0.301E-02
RMM:   5    -0.736512211170E+03   -0.48093E-05   -0.17562E-04  3044   0.245E-02    0.779E-03
RMM:   6    -0.736512212662E+03   -0.14923E-05   -0.30759E-05  3072   0.959E-03    0.507E-03
RMM:   7    -0.736512212805E+03   -0.14279E-06   -0.54748E-06  2312   0.398E-03
  37 F= -.73651221E+03 E0= -.73651221E+03  d E =-.815234E-01
 trial-energy change:   -0.081523  1 .order   -0.081454   -0.104596   -0.058311
 step:   0.3434(harm=  0.3434)  dis= 0.01207  next Energy=  -736.548875 (dE=-0.118E+00)
 bond charge predicted
       N       E                     dE             d eps       ncg     rms          rms(c)
DAV:   1    -0.736553473664E+03   -0.41261E-01   -0.32717E+00  3126   0.386E+00    0.531E-01
RMM:   2    -0.736550027532E+03    0.34461E-02   -0.57612E-02  3036   0.539E-01    0.285E-01
RMM:   3    -0.736548510747E+03    0.15168E-02   -0.13506E-02  3036   0.219E-01    0.717E-02
RMM:   4    -0.736548539773E+03   -0.29026E-04   -0.11414E-03  3038   0.742E-02    0.380E-02
RMM:   5    -0.736548548351E+03   -0.85782E-05   -0.28117E-04  3045   0.310E-02    0.984E-03
RMM:   6    -0.736548550619E+03   -0.22682E-05   -0.48335E-05  3074   0.121E-02    0.642E-03
RMM:   7    -0.736548550913E+03   -0.29371E-06   -0.87046E-06  2575   0.503E-03
  38 F= -.73654855E+03 E0= -.73654855E+03  d E =-.117862E+00
 curvature:  -0.47 expect dE=-0.136E+00 dE for cont linesearch -0.498E-05
 trial: gam= 0.44734 g(F)=  0.256E+00 g(S)=  0.343E-01 ort =-0.447E-02 (trialstep = 0.190E+00)
 search vector abs. value=  0.663E+00
 bond charge predicted
       N       E                     dE             d eps       ncg     rms          rms(c)
DAV:   1    -0.736592206777E+03   -0.43656E-01   -0.12162E+00  3216   0.237E+00    0.332E-01
RMM:   2    -0.736591213715E+03    0.99306E-03   -0.24165E-02  3036   0.348E-01    0.181E-01
RMM:   3    -0.736590628938E+03    0.58478E-03   -0.53098E-03  3036   0.138E-01    0.475E-02
RMM:   4    -0.736590640243E+03   -0.11305E-04   -0.50531E-04  3042   0.483E-02    0.270E-02
RMM:   5    -0.736590643907E+03   -0.36636E-05   -0.12105E-04  3049   0.203E-02    0.782E-03
RMM:   6    -0.736590644924E+03   -0.10175E-05   -0.19148E-05  3057   0.790E-03    0.476E-03
RMM:   7    -0.736590645335E+03   -0.41069E-06   -0.38077E-06  2167   0.326E-03
  39 F= -.73659065E+03 E0= -.73659065E+03  d E =-.420944E-01
 trial-energy change:   -0.042094  1 .order   -0.042125   -0.054787   -0.029463
 step:   0.4116(harm=  0.4116)  dis= 0.00997  next Energy=  -736.607815 (dE=-0.593E-01)
 bond charge predicted
       N       E                     dE             d eps       ncg     rms          rms(c)
DAV:   1    -0.736609995779E+03   -0.19351E-01   -0.16441E+00  3084   0.276E+00    0.386E-01
RMM:   2    -0.736608653725E+03    0.13421E-02   -0.32685E-02  3036   0.405E-01    0.211E-01
RMM:   3    -0.736607866433E+03    0.78729E-03   -0.71965E-03  3036   0.160E-01    0.552E-02
RMM:   4    -0.736607882247E+03   -0.15813E-04   -0.68522E-04  3042   0.562E-02    0.315E-02
RMM:   5    -0.736607887279E+03   -0.50329E-05   -0.16391E-04  3048   0.236E-02    0.908E-03
RMM:   6    -0.736607888603E+03   -0.13238E-05   -0.26191E-05  3066   0.919E-03    0.555E-03
RMM:   7    -0.736607889122E+03   -0.51898E-06   -0.51081E-06  2296   0.379E-03
  40 F= -.73660789E+03 E0= -.73660789E+03  d E =-.593382E-01
 curvature:  -0.47 expect dE=-0.110E+00 dE for cont linesearch -0.103E-05
 trial: gam= 0.77084 g(F)=  0.222E+00 g(S)=  0.106E-01 ort = 0.120E-02 (trialstep = 0.235E+00)
 search vector abs. value=  0.629E+00
 bond charge predicted
       N       E                     dE             d eps       ncg     rms          rms(c)
DAV:   1    -0.736646253038E+03   -0.38364E-01   -0.22250E+00  3177   0.325E+00    0.399E-01
RMM:   2    -0.736644132856E+03    0.21202E-02   -0.26316E-02  3036   0.367E-01    0.216E-01
RMM:   3    -0.736643439145E+03    0.69371E-03   -0.62396E-03  3036   0.148E-01    0.727E-02
RMM:   4    -0.736643426495E+03    0.12649E-04   -0.64308E-04  3049   0.515E-02    0.344E-02
RMM:   5    -0.736643433112E+03   -0.66161E-05   -0.15773E-04  3046   0.221E-02    0.910E-03
RMM:   6    -0.736643434355E+03   -0.12435E-05   -0.29606E-05  3062   0.905E-03    0.549E-03
RMM:   7    -0.736643434797E+03   -0.44244E-06   -0.48977E-06  2226   0.370E-03
  41 F= -.73664343E+03 E0= -.73664343E+03  d E =-.355457E-01
 trial-energy change:   -0.035546  1 .order   -0.035573   -0.054808   -0.016339
 step:   0.3341(harm=  0.3341)  dis= 0.00744  next Energy=  -736.646932 (dE=-0.390E-01)
 bond charge predicted
       N       E                     dE             d eps       ncg     rms          rms(c)
DAV:   1    -0.736647473755E+03   -0.40394E-02   -0.40142E-01  3288   0.138E+00    0.170E-01
RMM:   2    -0.736647092925E+03    0.38083E-03   -0.47664E-03  3036   0.156E-01    0.918E-02
RMM:   3    -0.736646969854E+03    0.12307E-03   -0.11254E-03  3036   0.629E-02    0.314E-02
RMM:   4    -0.736646967873E+03    0.19811E-05   -0.11993E-04  3055   0.219E-02    0.148E-02
RMM:   5    -0.736646968995E+03   -0.11225E-05   -0.26413E-05  3040   0.929E-03    0.389E-03
RMM:   6    -0.736646969279E+03   -0.28340E-06   -0.55162E-06  2255   0.387E-03
  42 F= -.73664697E+03 E0= -.73664697E+03  d E =-.390802E-01
 curvature:  -0.45 expect dE=-0.406E-01 dE for cont linesearch -0.700E-06
 trial: gam= 0.39585 g(F)=  0.784E-01 g(S)=  0.120E-01 ort = 0.990E-03 (trialstep = 0.254E+00)
 search vector abs. value=  0.190E+00
 bond charge predicted
       N       E                     dE             d eps       ncg     rms          rms(c)
DAV:   1    -0.736663919631E+03   -0.16951E-01   -0.72536E-01  3093   0.187E+00    0.250E-01
RMM:   2    -0.736662915006E+03    0.10046E-02   -0.96446E-03  3036   0.218E-01    0.136E-01
RMM:   3    -0.736662629992E+03    0.28501E-03   -0.27300E-03  3036   0.935E-02    0.450E-02
RMM:   4    -0.736662629384E+03    0.60759E-06   -0.24227E-04  3041   0.325E-02    0.251E-02
RMM:   5    -0.736662632147E+03   -0.27634E-05   -0.66189E-05  3048   0.140E-02    0.485E-03
RMM:   6    -0.736662632339E+03   -0.19150E-06   -0.11731E-05  2833   0.581E-03    0.338E-03
RMM:   7    -0.736662632744E+03   -0.40488E-06   -0.23798E-06  2053   0.240E-03
  43 F= -.73666263E+03 E0= -.73666263E+03  d E =-.156635E-01
 trial-energy change:   -0.015663  1 .order   -0.015672   -0.023100   -0.008245
 step:   0.3956(harm=  0.3956)  dis= 0.00395  next Energy=  -736.664929 (dE=-0.180E-01)
 bond charge predicted
       N       E                     dE             d eps       ncg     rms          rms(c)
DAV:   1    -0.736665323189E+03   -0.26908E-02   -0.22347E-01  3288   0.104E+00    0.139E-01
RMM:   2    -0.736665014164E+03    0.30902E-03   -0.29775E-03  3036   0.121E-01    0.753E-02
RMM:   3    -0.736664926890E+03    0.87274E-04   -0.84328E-04  3036   0.519E-02    0.251E-02
RMM:   4    -0.736664926730E+03    0.16012E-06   -0.75152E-05  3041   0.180E-02    0.140E-02
RMM:   5    -0.736664927856E+03   -0.11266E-05   -0.20543E-05  3048   0.778E-03    0.270E-03
RMM:   6    -0.736664927920E+03   -0.63894E-07   -0.36823E-06  2151   0.324E-03
  44 F= -.73666493E+03 E0= -.73666493E+03  d E =-.179586E-01
 curvature:  -0.41 expect dE=-0.165E-01 dE for cont linesearch -0.441E-07
 trial: gam= 0.44776 g(F)=  0.369E-01 g(S)=  0.293E-02 ort = 0.142E-03 (trialstep = 0.283E+00)
 search vector abs. value=  0.780E-01
 bond charge predicted
       N       E                     dE             d eps       ncg     rms          rms(c)
DAV:   1    -0.736673389178E+03   -0.84613E-02   -0.30227E-01  3153   0.122E+00    0.161E-01
RMM:   2    -0.736672999282E+03    0.38990E-03   -0.37088E-03  3036   0.139E-01    0.880E-02
RMM:   3    -0.736672891020E+03    0.10826E-03   -0.10574E-03  3036   0.583E-02    0.253E-02
RMM:   4    -0.736672888995E+03    0.20244E-05   -0.99221E-05  3041   0.207E-02    0.115E-02
RMM:   5    -0.736672891256E+03   -0.22603E-05   -0.25429E-05  3055   0.878E-03    0.321E-03
RMM:   6    -0.736672891472E+03   -0.21661E-06   -0.45292E-06  2222   0.363E-03
  45 F= -.73667289E+03 E0= -.73667289E+03  d E =-.796355E-02
 trial-energy change:   -0.007964  1 .order   -0.007976   -0.011288   -0.004664
 step:   0.4817(harm=  0.4817)  dis= 0.00295  next Energy=  -736.674546 (dE=-0.962E-02)
 bond charge predicted
       N       E                     dE             d eps       ncg     rms          rms(c)
DAV:   1    -0.736674780600E+03   -0.18893E-02   -0.14998E-01  3280   0.857E-01    0.113E-01
RMM:   2    -0.736674589575E+03    0.19102E-03   -0.18502E-03  3036   0.979E-02    0.620E-02
RMM:   3    -0.736674537164E+03    0.52411E-04   -0.52584E-04  3036   0.412E-02    0.178E-02
RMM:   4    -0.736674536420E+03    0.74401E-06   -0.49634E-05  3042   0.146E-02    0.814E-03
RMM:   5    -0.736674537777E+03   -0.13572E-05   -0.12629E-05  3041   0.620E-03    0.227E-03
RMM:   6    -0.736674537913E+03   -0.13599E-06   -0.22618E-06  2057   0.256E-03
  46 F= -.73667454E+03 E0= -.73667454E+03  d E =-.960999E-02
 curvature:  -0.47 expect dE=-0.122E-01 dE for cont linesearch -0.754E-08
 trial: gam= 0.65268 g(F)=  0.252E-01 g(S)=  0.685E-03 ort = 0.353E-04 (trialstep = 0.322E+00)
 search vector abs. value=  0.591E-01
 bond charge predicted
       N       E                     dE             d eps       ncg     rms          rms(c)
DAV:   1    -0.736679144138E+03   -0.46064E-02   -0.35726E-01  3195   0.131E+00    0.168E-01
RMM:   2    -0.736678847428E+03    0.29671E-03   -0.51369E-03  3036   0.165E-01    0.890E-02
RMM:   3    -0.736678721610E+03    0.12582E-03   -0.12737E-03  3036   0.654E-02    0.260E-02
RMM:   4    -0.736678728725E+03   -0.71148E-05   -0.11708E-04  3039   0.225E-02    0.143E-02
RMM:   5    -0.736678731297E+03   -0.25717E-05   -0.27669E-05  3056   0.940E-03    0.323E-03
RMM:   6    -0.736678731583E+03   -0.28559E-06   -0.46993E-06  2218   0.367E-03
  47 F= -.73667873E+03 E0= -.73667873E+03  d E =-.419367E-02
 trial-energy change:   -0.004194  1 .order   -0.004258   -0.008342   -0.000174
 step:   0.3297(harm=  0.3294)  dis= 0.00158  next Energy=  -736.678734 (dE=-0.420E-02)
 bond charge predicted
       N       E                     dE             d eps       ncg     rms          rms(c)
DAV:   1    -0.736678730029E+03    0.12681E-05   -0.18458E-04  3496   0.296E-02    0.380E-03
RMM:   2    -0.736678730214E+03   -0.18509E-06   -0.28905E-06  2127   0.392E-03
  48 F= -.73667873E+03 E0= -.73667873E+03  d E =-.419230E-02
 curvature:  -0.38 expect dE=-0.543E-02 dE for cont linesearch -0.130E-07
 trial: gam= 0.55954 g(F)=  0.129E-01 g(S)=  0.156E-02 ort = 0.453E-04 (trialstep = 0.324E+00)
 search vector abs. value=  0.330E-01
 bond charge predicted
       N       E                     dE             d eps       ncg     rms          rms(c)
DAV:   1    -0.736681765887E+03   -0.30359E-02   -0.21316E-01  3098   0.986E-01    0.141E-01
RMM:   2    -0.736681399142E+03    0.36674E-03   -0.27885E-03  3036   0.117E-01    0.758E-02
RMM:   3    -0.736681277214E+03    0.12193E-03   -0.90600E-04  3036   0.540E-02    0.185E-02
RMM:   4    -0.736681279933E+03   -0.27183E-05   -0.79704E-05  3046   0.185E-02    0.100E-02
RMM:   5    -0.736681281812E+03   -0.18792E-05   -0.18050E-05  3046   0.745E-03    0.287E-03
RMM:   6    -0.736681281961E+03   -0.14906E-06   -0.32106E-06  2124   0.310E-03
  49 F= -.73668128E+03 E0= -.73668128E+03  d E =-.255175E-02
 trial-energy change:   -0.002552  1 .order   -0.002703   -0.004691   -0.000715
 step:   0.4056(harm=  0.3822)  dis= 0.00097  next Energy=  -736.681370 (dE=-0.264E-02)
 bond charge predicted
       N       E                     dE             d eps       ncg     rms          rms(c)
DAV:   1    -0.736681321583E+03   -0.39771E-04   -0.13582E-02  3384   0.249E-01    0.355E-02
RMM:   2    -0.736681299391E+03    0.22192E-04   -0.17960E-04  3036   0.297E-02    0.192E-02
RMM:   3    -0.736681292700E+03    0.66912E-05   -0.58046E-05  3036   0.137E-02    0.467E-03
RMM:   4    -0.736681293058E+03   -0.35757E-06   -0.51898E-06  2407   0.470E-03
  50 F= -.73668129E+03 E0= -.73668129E+03  d E =-.256284E-02
 curvature:  -0.37 expect dE=-0.384E-02 dE for cont linesearch -0.795E-05
 trial: gam= 0.77949 g(F)=  0.981E-02 g(S)=  0.695E-03 ort =-0.847E-03 (trialstep = 0.340E+00)
 search vector abs. value=  0.292E-01
 bond charge predicted
       N       E                     dE             d eps       ncg     rms          rms(c)
DAV:   1    -0.736682770728E+03   -0.14780E-02   -0.17793E-01  3093   0.922E-01    0.121E-01
RMM:   2    -0.736682591790E+03    0.17894E-03   -0.20912E-03  3036   0.104E-01    0.671E-02
RMM:   3    -0.736682529538E+03    0.62252E-04   -0.59244E-04  3036   0.430E-02    0.196E-02
RMM:   4    -0.736682527278E+03    0.22598E-05   -0.50753E-05  3037   0.149E-02    0.103E-02
RMM:   5    -0.736682529041E+03   -0.17630E-05   -0.16386E-05  3044   0.671E-03    0.264E-03
RMM:   6    -0.736682529012E+03    0.28738E-07   -0.31541E-06  2123   0.288E-03
  51 F= -.73668253E+03 E0= -.73668253E+03  d E =-.123595E-02
 trial-energy change:   -0.001236  1 .order   -0.001629   -0.003348    0.000090
 step:   0.3158(harm=  0.3314)  dis= 0.00091  next Energy=  -736.682532 (dE=-0.124E-02)
 bond charge predicted
       N       E                     dE             d eps       ncg     rms          rms(c)
DAV:   1    -0.736682562086E+03   -0.33045E-04   -0.91526E-04  3464   0.662E-02    0.872E-03
RMM:   2    -0.736682560503E+03    0.15833E-05   -0.10465E-05  3030   0.734E-03    0.478E-03
RMM:   3    -0.736682559700E+03    0.80326E-06   -0.31268E-06  2152   0.308E-03
  52 F= -.73668256E+03 E0= -.73668256E+03  d E =-.126664E-02
 curvature:   1.02 expect dE= 0.483E-02 dE for cont linesearch  0.926E-05
 trial: gam= 0.30542 g(F)=  0.368E-02 g(S)=  0.104E-02 ort = 0.514E-03 (trialstep = 0.335E+00)
 search vector abs. value=  0.776E-02
 bond charge predicted
       N       E                     dE             d eps       ncg     rms          rms(c)
DAV:   1    -0.736683121112E+03   -0.56061E-03   -0.37018E-02  3208   0.423E-01    0.644E-02
RMM:   2    -0.736683069445E+03    0.51668E-04   -0.58697E-04  3036   0.551E-02    0.348E-02
RMM:   3    -0.736683049338E+03    0.20106E-04   -0.16580E-04  3036   0.241E-02    0.737E-03
RMM:   4    -0.736683050101E+03   -0.76252E-06   -0.13420E-05  3042   0.807E-03    0.399E-03
RMM:   5    -0.736683050882E+03   -0.78132E-06   -0.34254E-06  2193   0.344E-03
  53 F= -.73668305E+03 E0= -.73668305E+03  d E =-.491183E-03
 trial-energy change:   -0.000491  1 .order   -0.001035   -0.001636   -0.000435
 step:   0.4567(harm=  0.4567)  dis= 0.00095  next Energy=  -736.683674 (dE=-0.111E-02)
 bond charge predicted
       N       E                     dE             d eps       ncg     rms          rms(c)
DAV:   1    -0.736682907253E+03    0.14285E-03   -0.48594E-03  3376   0.153E-01    0.234E-02
RMM:   2    -0.736682901949E+03    0.53038E-05   -0.77053E-05  3036   0.200E-02    0.127E-02
RMM:   3    -0.736682900639E+03    0.13095E-05   -0.21730E-05  3036   0.872E-03    0.273E-03
RMM:   4    -0.736682900919E+03   -0.27948E-06   -0.18344E-06  1961   0.294E-03
  54 F= -.73668290E+03 E0= -.73668290E+03  d E =-.341219E-03
 curvature:  -0.36 expect dE=-0.115E-02 dE for cont linesearch -0.106E-07
 trial: gam= 0.72845 g(F)=  0.225E-02 g(S)=  0.911E-03 ort = 0.150E-04 (trialstep = 0.360E+00)
 search vector abs. value=  0.730E-02
 bond charge predicted
       N       E                     dE             d eps       ncg     rms          rms(c)
DAV:   1    -0.736682204063E+03    0.69658E-03   -0.41399E-02  3227   0.448E-01    0.519E-02
RMM:   2    -0.736682191702E+03    0.12361E-04   -0.55993E-04  3036   0.537E-02    0.279E-02
RMM:   3    -0.736682185494E+03    0.62082E-05   -0.11541E-04  3036   0.209E-02    0.714E-03
RMM:   4    -0.736682187688E+03   -0.21942E-05   -0.12247E-05  3037   0.696E-03    0.346E-03
RMM:   5    -0.736682189044E+03   -0.13555E-05   -0.25432E-06  2050   0.281E-03    0.123E-03
RMM:   6    -0.736682189290E+03   -0.24621E-06   -0.44611E-07  1891   0.107E-03
  55 F= -.73668219E+03 E0= -.73668219E+03  d E =0.711629E-03
 trial-energy change:    0.000712  1 .order   -0.000751   -0.001140   -0.000363
 step:   0.5275(harm=  0.5275)  dis= 0.00072  next Energy=  -736.683737 (dE=-0.836E-03)
 bond charge predicted
       N       E                     dE             d eps       ncg     rms          rms(c)
DAV:   1    -0.736681416772E+03    0.77227E-03   -0.90277E-03  3376   0.209E-01    0.242E-02
RMM:   2    -0.736681416081E+03    0.69018E-06   -0.12282E-04  3036   0.251E-02    0.130E-02
RMM:   3    -0.736681416683E+03   -0.60168E-06   -0.25316E-05  3036   0.976E-03    0.332E-03
RMM:   4    -0.736681417646E+03   -0.96315E-06   -0.27444E-06  2062   0.327E-03
  56 F= -.73668142E+03 E0= -.73668142E+03  d E =0.148327E-02
 curvature:  -0.61 expect dE=-0.362E-02 dE for cont linesearch -0.208E-09
 trial: gam= 1.85954 g(F)=  0.414E-02 g(S)=  0.182E-02 ort =-0.158E-05 (trialstep = 0.920E-01)
 search vector abs. value=  0.312E-01
 bond charge predicted
       N       E                     dE             d eps       ncg     rms          rms(c)
DAV:   1    -0.736680459781E+03    0.95690E-03   -0.90745E-03  3334   0.210E-01    0.187E-02
RMM:   2    -0.736680469808E+03   -0.10027E-04   -0.13462E-04  3036   0.262E-02    0.101E-02
RMM:   3    -0.736680475516E+03   -0.57080E-05   -0.22190E-05  3036   0.929E-03    0.300E-03
RMM:   4    -0.736680476881E+03   -0.13648E-05   -0.27156E-06  2062   0.308E-03    0.157E-03
RMM:   5    -0.736680478175E+03   -0.12942E-05   -0.51016E-07  1891   0.123E-03    0.366E-04
RMM:   6    -0.736680478311E+03   -0.13550E-06   -0.98641E-08  1198   0.520E-04
  57 F= -.73668048E+03 E0= -.73668048E+03  d E =0.939335E-03
 ZBRENT: can't locate minimum, use default step
 trial-energy change:    0.000939  1 .order   -0.000540   -0.000548   -0.000532
 step:   0.3680(harm=  3.1381)  dis= 0.00104  next Energy=  -736.690766 (dE=-0.935E-02)
 bond charge predicted
       N       E                     dE             d eps       ncg     rms          rms(c)
DAV:   1    -0.736676046430E+03    0.44317E-02   -0.81625E-02  3288   0.631E-01    0.560E-02
RMM:   2    -0.736676108515E+03   -0.62085E-04   -0.12088E-03  3036   0.785E-02    0.303E-02
RMM:   3    -0.736676129936E+03   -0.21421E-04   -0.19921E-04  3036   0.278E-02    0.887E-03
RMM:   4    -0.736676136413E+03   -0.64770E-05   -0.23958E-05  3059   0.921E-03    0.464E-03
RMM:   5    -0.736676142154E+03   -0.57407E-05   -0.52266E-06  2299   0.385E-03    0.117E-03
RMM:   6    -0.736676142624E+03   -0.46994E-06   -0.89925E-07  1941   0.149E-03
  58 F= -.73667614E+03 E0= -.73667614E+03  d E =0.527502E-02
 curvature:  -1.42 expect dE=-0.129E-01 dE for cont linesearch -0.127E-02
 ZBRENT: increasing intervall
 opt :   0.9201  next Energy=  -736.678784 (dE= 0.263E-02)
 bond charge predicted
       N       E                     dE             d eps       ncg     rms          rms(c)
DAV:   1    -0.736660291435E+03    0.15851E-01   -0.32653E-01  3312   0.126E+00    0.112E-01
RMM:   2    -0.736660517882E+03   -0.22645E-03   -0.48202E-03  3036   0.157E-01    0.606E-02
RMM:   3    -0.736660582108E+03   -0.64226E-04   -0.79421E-04  3036   0.556E-02    0.177E-02
RMM:   4    -0.736660604020E+03   -0.21912E-04   -0.94473E-05  3058   0.184E-02    0.924E-03
RMM:   5    -0.736660622793E+03   -0.18773E-04   -0.20972E-05  3052   0.770E-03    0.232E-03
RMM:   6    -0.736660624512E+03   -0.17195E-05   -0.37219E-06  2133   0.303E-03    0.135E-03
RMM:   7    -0.736660626750E+03   -0.22380E-05   -0.67274E-07  1932   0.125E-03    0.357E-04
RMM:   8    -0.736660627157E+03   -0.40634E-06   -0.13467E-07  1217   0.556E-04
  59 F= -.73666063E+03 E0= -.73666063E+03  d E =0.207905E-01
 curvature:  -2.95 expect dE=-0.892E-01 dE for cont linesearch -0.174E-02
 ZBRENT: increasing intervall
 opt :   2.0242  next Energy=  -736.664261 (dE= 0.172E-01)
 bond charge predicted
       N       E                     dE             d eps       ncg     rms          rms(c)
DAV:   1    -0.736600898166E+03    0.59729E-01   -0.13063E+00  3296   0.253E+00    0.224E-01
RMM:   2    -0.736601758056E+03   -0.85989E-03   -0.19263E-02  3036   0.314E-01    0.121E-01
RMM:   3    -0.736601971172E+03   -0.21312E-03   -0.31813E-03  3036   0.111E-01    0.350E-02
RMM:   4    -0.736602050704E+03   -0.79533E-04   -0.37706E-04  3058   0.368E-02    0.184E-02
RMM:   5    -0.736602117623E+03   -0.66919E-04   -0.83822E-05  3055   0.154E-02    0.461E-03
RMM:   6    -0.736602124123E+03   -0.65001E-05   -0.14583E-05  2700   0.605E-03    0.265E-03
RMM:   7    -0.736602132404E+03   -0.82803E-05   -0.30103E-06  2082   0.257E-03    0.777E-04
RMM:   8    -0.736602134025E+03   -0.16211E-05   -0.55540E-07  1905   0.107E-03    0.293E-04
RMM:   9    -0.736602134541E+03   -0.51603E-06   -0.12413E-07  1097   0.507E-04
  60 F= -.73660213E+03 E0= -.73660213E+03  d E =0.792831E-01
 curvature:  -6.17 expect dE=-0.822E+00 dE for cont linesearch -0.108E-02
 ZBRENT: increasing intervall
 opt :   4.2325  next Energy=  -736.603004 (dE= 0.784E-01)
 bond charge predicted
       N       E                     dE             d eps       ncg     rms          rms(c)
DAV:   1    -0.736370721605E+03    0.23141E+00   -0.52279E+00  3296   0.505E+00    0.450E-01
RMM:   2    -0.736374067753E+03   -0.33461E-02   -0.77130E-02  3036   0.628E-01    0.244E-01
RMM:   3    -0.736374831155E+03   -0.76340E-03   -0.12792E-02  3036   0.223E-01    0.692E-02
RMM:   4    -0.736375133236E+03   -0.30208E-03   -0.15115E-03  3058   0.737E-02    0.364E-02
RMM:   5    -0.736375387414E+03   -0.25418E-03   -0.34061E-04  3058   0.309E-02    0.917E-03
RMM:   6    -0.736375413457E+03   -0.26043E-04   -0.55930E-05  3066   0.120E-02    0.521E-03
RMM:   7    -0.736375446921E+03   -0.33464E-04   -0.12182E-05  2522   0.522E-03    0.157E-03
RMM:   8    -0.736375453466E+03   -0.65451E-05   -0.21672E-06  2037   0.216E-03    0.615E-04
RMM:   9    -0.736375456111E+03   -0.26451E-05   -0.56577E-07  1832   0.991E-04    0.170E-04
RMM:  10    -0.736375457181E+03   -0.10705E-05   -0.11900E-07  1049   0.479E-04    0.968E-05
RMM:  11    -0.736375458064E+03   -0.88224E-06   -0.28133E-08   849   0.355E-04
  61 F= -.73637546E+03 E0= -.73637546E+03  d E =0.305960E+00
 curvature:  -4.95 expect dE=-0.294E+01 dE for cont linesearch -0.363E-03
 ZBRENT: bracketing found
 ZBRENT: interpolating
 opt :   3.3655  next Energy=  -736.376114 (dE= 0.305E+00)
 bond charge predicted
       N       E                     dE             d eps       ncg     rms          rms(c)
DAV:   1    -0.736482364423E+03   -0.10691E+00   -0.80594E-01  3224   0.198E+00    0.177E-01
RMM:   2    -0.736482408874E+03   -0.44451E-04   -0.11896E-02  3036   0.246E-01    0.959E-02
RMM:   3    -0.736482009986E+03    0.39889E-03   -0.19701E-03  3036   0.875E-02    0.283E-02
RMM:   4    -0.736481949106E+03    0.60880E-04   -0.23243E-04  3057   0.290E-02    0.149E-02
RMM:   5    -0.736481870955E+03    0.78151E-04   -0.52739E-05  3059   0.121E-02    0.375E-03
RMM:   6    -0.736481863043E+03    0.79115E-05   -0.86483E-06  2403   0.474E-03    0.217E-03
RMM:   7    -0.736481851193E+03    0.11851E-04   -0.18610E-06  2022   0.200E-03    0.607E-04
RMM:   8    -0.736481848548E+03    0.26441E-05   -0.34303E-07  1715   0.856E-04    0.218E-04
RMM:   9    -0.736481847566E+03    0.98238E-06   -0.75853E-08  1019   0.443E-04
  62 F= -.73648185E+03 E0= -.73648185E+03  d E =0.199570E+00
 curvature:  -8.94 expect dE=-0.332E+01 dE for cont linesearch -0.199E-06
 trial: gam=62.29844 g(F)=  0.275E+00 g(S)=  0.962E-01 ort =-0.263E-04 (trialstep = 0.192E-03)
 search vector abs. value=  0.121E+03
 bond charge predicted
       N       E                     dE             d eps       ncg     rms          rms(c)
DAV:   1    -0.736480545727E+03    0.13028E-02   -0.14462E-04  3424   0.266E-02    0.223E-03
RMM:   2    -0.736480550145E+03   -0.44182E-05   -0.21733E-06  1930   0.331E-03    0.122E-03
RMM:   3    -0.736480554887E+03   -0.47421E-05   -0.29453E-07  1735   0.112E-03    0.358E-04
RMM:   4    -0.736480556053E+03   -0.11657E-05   -0.18426E-08   688   0.378E-04    0.172E-04
RMM:   5    -0.736480557086E+03   -0.10335E-05   -0.14348E-09   474   0.346E-04    0.166E-05
RMM:   6    -0.736480557197E+03   -0.11083E-06    0.00000E+00   422   0.342E-04
  63 F= -.73648056E+03 E0= -.73648056E+03  d E =0.129037E-02
 ZBRENT: can't locate minimum, use default step
 trial-energy change:    0.001290  1 .order   -0.000071   -0.000071   -0.000071
 step:   0.0008(harm=  0.0008)  dis= 0.00013  next Energy=  -736.482133 (dE=-0.285E-03)
 bond charge predicted
       N       E                     dE             d eps       ncg     rms          rms(c)
DAV:   1    -0.736476623387E+03    0.39337E-02   -0.13090E-03  3300   0.800E-02    0.665E-03
RMM:   2    -0.736476637897E+03   -0.14510E-04   -0.19748E-05  3036   0.100E-02    0.363E-03
RMM:   3    -0.736476653149E+03   -0.15253E-04   -0.30541E-06  2129   0.348E-03    0.107E-03
RMM:   4    -0.736476656339E+03   -0.31893E-05   -0.36820E-07  1867   0.113E-03    0.550E-04
RMM:   5    -0.736476659752E+03   -0.34131E-05   -0.64034E-08  1034   0.474E-04    0.106E-04
RMM:   6    -0.736476660325E+03   -0.57364E-06   -0.11416E-08   639   0.353E-04
  64 F= -.73647666E+03 E0= -.73647666E+03  d E =0.518724E-02
 curvature:  -0.19 expect dE=-0.720E-01 dE for cont linesearch -0.218E-03
 ZBRENT: increasing intervall
 opt :   0.0019  next Energy=  -736.477095 (dE= 0.475E-02)
 bond charge predicted
       N       E                     dE             d eps       ncg     rms          rms(c)
DAV:   1    -0.736468690116E+03    0.79696E-02   -0.52298E-03  3336   0.160E-01    0.133E-02
RMM:   2    -0.736468721399E+03   -0.31283E-04   -0.78691E-05  3036   0.201E-02    0.728E-03
RMM:   3    -0.736468752532E+03   -0.31132E-04   -0.12142E-05  3036   0.694E-03    0.211E-03
RMM:   4    -0.736468759229E+03   -0.66972E-05   -0.15277E-06  1981   0.230E-03    0.109E-03
RMM:   5    -0.736468765876E+03   -0.66469E-05   -0.28867E-07  1877   0.922E-04    0.257E-04
RMM:   6    -0.736468766844E+03   -0.96875E-06   -0.55118E-08   950   0.398E-04
  65 F= -.73646877E+03 E0= -.73646877E+03  d E =0.130807E-01
 curvature:  -0.38 expect dE=-0.149E+00 dE for cont linesearch -0.450E-03
 ZBRENT: increasing intervall
 opt :   0.0042  next Energy=  -736.469657 (dE= 0.122E-01)
 bond charge predicted
       N       E                     dE             d eps       ncg     rms          rms(c)
DAV:   1    -0.736452366941E+03    0.16399E-01   -0.20919E-02  3328   0.320E-01    0.266E-02
RMM:   2    -0.736452438724E+03   -0.71782E-04   -0.31439E-04  3036   0.401E-02    0.146E-02
RMM:   3    -0.736452503383E+03   -0.64660E-04   -0.48489E-05  3036   0.139E-02    0.420E-03
RMM:   4    -0.736452517420E+03   -0.14036E-04   -0.61031E-06  2394   0.459E-03    0.215E-03
RMM:   5    -0.736452531245E+03   -0.13826E-04   -0.12632E-06  1955   0.185E-03    0.532E-04
RMM:   6    -0.736452533212E+03   -0.19670E-05   -0.20975E-07  1687   0.734E-04    0.268E-04
RMM:   7    -0.736452535037E+03   -0.18250E-05   -0.45109E-08   939   0.386E-04    0.558E-05
RMM:   8    -0.736452535495E+03   -0.45793E-06   -0.52068E-09   736   0.320E-04
  66 F= -.73645254E+03 E0= -.73645254E+03  d E =0.293121E-01
 curvature:  -0.75 expect dE=-0.315E+00 dE for cont linesearch -0.957E-03
 ZBRENT: increasing intervall
 opt :   0.0088  next Energy=  -736.454416 (dE= 0.274E-01)
 bond charge predicted
       N       E                     dE             d eps       ncg     rms          rms(c)
DAV:   1    -0.736417916025E+03    0.34619E-01   -0.83648E-02  3312   0.640E-01    0.533E-02
RMM:   2    -0.736418096030E+03   -0.18001E-03   -0.12559E-03  3036   0.801E-02    0.292E-02
RMM:   3    -0.736418234128E+03   -0.13810E-03   -0.19365E-04  3036   0.277E-02    0.838E-03
RMM:   4    -0.736418264919E+03   -0.30790E-04   -0.24254E-05  3061   0.918E-03    0.429E-03
RMM:   5    -0.736418295046E+03   -0.30127E-04   -0.52989E-06  2289   0.382E-03    0.110E-03
RMM:   6    -0.736418298596E+03   -0.35508E-05   -0.86188E-07  1941   0.146E-03    0.594E-04
RMM:   7    -0.736418302890E+03   -0.42940E-05   -0.17206E-07  1396   0.648E-04    0.147E-04
RMM:   8    -0.736418303920E+03   -0.10296E-05   -0.37411E-08   893   0.391E-04    0.491E-05
RMM:   9    -0.736418304297E+03   -0.37707E-06   -0.49452E-09   749   0.343E-04
  67 F= -.73641830E+03 E0= -.73641830E+03  d E =0.635433E-01
 curvature:  -1.47 expect dE=-0.705E+00 dE for cont linesearch -0.215E-02
 ZBRENT: increasing intervall
 opt :   0.0180  next Energy=  -736.422433 (dE= 0.594E-01)
 bond charge predicted
       N       E                     dE             d eps       ncg     rms          rms(c)
DAV:   1    -0.736341718804E+03    0.76585E-01   -0.33461E-01  3310   0.128E+00    0.107E-01
RMM:   2    -0.736342224734E+03   -0.50593E-03   -0.50221E-03  3036   0.160E-01    0.584E-02
RMM:   3    -0.736342537033E+03   -0.31230E-03   -0.77527E-04  3036   0.555E-02    0.167E-02
RMM:   4    -0.736342609684E+03   -0.72651E-04   -0.96925E-05  3061   0.184E-02    0.856E-03
RMM:   5    -0.736342678913E+03   -0.69229E-04   -0.21344E-05  3053   0.764E-03    0.218E-03
RMM:   6    -0.736342687270E+03   -0.83570E-05   -0.33953E-06  2117   0.297E-03    0.120E-03
RMM:   7    -0.736342697115E+03   -0.98443E-05   -0.71816E-07  1934   0.126E-03    0.326E-04
RMM:   8    -0.736342699435E+03   -0.23204E-05   -0.14509E-07  1232   0.569E-04    0.120E-04
RMM:   9    -0.736342700435E+03   -0.99972E-06   -0.32611E-08   880   0.391E-04
  68 F= -.73634270E+03 E0= -.73634270E+03  d E =0.139147E+00
 curvature:  -2.82 expect dE=-0.172E+01 dE for cont linesearch -0.530E-02
 ZBRENT: increasing intervall
 opt :   0.0364  next Energy=  -736.352532 (dE= 0.129E+00)
 bond charge predicted
       N       E                     dE             d eps       ncg     rms          rms(c)
DAV:   1    -0.736160342585E+03    0.18236E+00   -0.13388E+00  3307   0.256E+00    0.214E-01
RMM:   2    -0.736161936684E+03   -0.15941E-02   -0.20092E-02  3036   0.320E-01    0.117E-01
RMM:   3    -0.736162705413E+03   -0.76873E-03   -0.31093E-03  3036   0.111E-01    0.332E-02
RMM:   4    -0.736162894802E+03   -0.18939E-03   -0.38743E-04  3060   0.368E-02    0.171E-02
RMM:   5    -0.736163069707E+03   -0.17490E-03   -0.85735E-05  3059   0.153E-02    0.433E-03
RMM:   6    -0.736163091263E+03   -0.21557E-04   -0.14305E-05  2674   0.599E-03    0.238E-03
RMM:   7    -0.736163116536E+03   -0.25273E-04   -0.28774E-06  2074   0.255E-03    0.697E-04
RMM:   8    -0.736163122584E+03   -0.60482E-05   -0.59150E-07  1902   0.109E-03    0.265E-04
RMM:   9    -0.736163125092E+03   -0.25083E-05   -0.13441E-07  1108   0.522E-04    0.702E-05
RMM:  10    -0.736163126486E+03   -0.13933E-05   -0.32066E-08   871   0.376E-04    0.325E-05
RMM:  11    -0.736163127107E+03   -0.62139E-06   -0.47881E-09   760   0.333E-04
  69 F= -.73616313E+03 E0= -.73616313E+03  d E =0.318720E+00
 curvature:  -5.23 expect dE=-0.482E+01 dE for cont linesearch -0.152E-01
 ZBRENT: increasing intervall
 opt :   0.0733  next Energy=  -736.189317 (dE= 0.293E+00)
 bond charge predicted
       N       E                     dE             d eps       ncg     rms          rms(c)
DAV:   1    -0.735681803382E+03    0.48132E+00   -0.53587E+00  3328   0.512E+00BRMIX: very serious problems
 the old and the new charge density differ
 old charge density:   384.00841 new  384.01613
    0.429E-01
RMM:   2    -0.735687308592E+03   -0.55052E-02   -0.80540E-02  3036   0.641E-01    0.236E-01
RMM:   3    -0.735689414115E+03   -0.21055E-02   -0.12521E-02  3036   0.223E-01    0.660E-02
RMM:   4    -0.735689970688E+03   -0.55657E-03   -0.15595E-03  3061   0.738E-02    0.340E-02
RMM:   5    -0.735690467566E+03   -0.49688E-03   -0.34841E-04  3063   0.307E-02    0.865E-03
RMM:   6    -0.735690531353E+03   -0.63787E-04   -0.53278E-05  3060   0.119E-02    0.469E-03
RMM:   7    -0.735690605664E+03   -0.74311E-04   -0.12442E-05  2521   0.526E-03    0.143E-03
RMM:   8    -0.735690624351E+03   -0.18687E-04   -0.23329E-06  2056   0.221E-03    0.546E-04
RMM:   9    -0.735690632173E+03   -0.78219E-05   -0.61161E-07  1833   0.102E-03    0.163E-04
RMM:  10    -0.735690635908E+03   -0.37355E-05   -0.12775E-07  1061   0.495E-04    0.899E-05
RMM:  11    -0.735690638664E+03   -0.27558E-05   -0.31150E-08   867   0.365E-04    0.253E-05
RMM:  12    -0.735690640003E+03   -0.13395E-05   -0.42393E-09   759   0.326E-04    0.106E-05
RMM:  13    -0.735690640449E+03   -0.44504E-06    0.00000E+00   725   0.319E-04
  70 F= -.73569064E+03 E0= -.73569064E+03  d E =0.791207E+00
 curvature:  -9.00 expect dE=-0.158E+02 dE for cont linesearch -0.531E-01
 ZBRENT: increasing intervall
 opt :   0.1469  next Energy=  -735.771573 (dE= 0.710E+00)
 bond charge predicted
       N       E                     dE             d eps       ncg     rms          rms(c)
DAV:   1    -0.734262841656E+03    0.14278E+01   -0.21465E+01  3328   0.102E+01BRMIX: very serious problems
 the old and the new charge density differ
 old charge density:   384.01597 new  384.03888
    0.869E-01
RMM:   2    -0.734283096900E+03   -0.20255E-01   -0.32500E-01  3036   0.129E+00    0.478E-01
RMM:   3    -0.734289506716E+03   -0.64098E-02   -0.50993E-02  3036   0.448E-01    0.131E-01
RMM:   4    -0.734291336605E+03   -0.18299E-02   -0.63556E-03  3060   0.149E-01    0.676E-02
RMM:   5    -0.734292926156E+03   -0.15896E-02   -0.14499E-03  3063   0.623E-02    0.172E-02
RMM:   6    -0.734293152349E+03   -0.22619E-03   -0.22589E-04  3074   0.241E-02    0.927E-03
RMM:   7    -0.734293404428E+03   -0.25208E-03   -0.47515E-05  3042   0.105E-02    0.279E-03
RMM:   8    -0.734293470633E+03   -0.66204E-04   -0.95730E-06  2293   0.449E-03    0.111E-03
RMM:   9    -0.734293504614E+03   -0.33982E-04   -0.23701E-06  2047   0.199E-03    0.333E-04
RMM:  10    -0.734293518397E+03   -0.13783E-04   -0.50944E-07  1645   0.926E-04    0.198E-04
RMM:  11    -0.734293529486E+03   -0.11090E-04   -0.13002E-07  1034   0.503E-04    0.524E-05
RMM:  12    -0.734293534036E+03   -0.45496E-05   -0.32593E-08   866   0.387E-04    0.239E-05
RMM:  13    -0.734293536178E+03   -0.21416E-05   -0.59662E-09   769   0.348E-04    0.983E-06
RMM:  14    -0.734293537408E+03   -0.12306E-05   -0.60421E-11   729   0.340E-04    0.195E-06
RMM:  15    -0.734293537463E+03   -0.54597E-07   -0.14561E-10   722   0.340E-04
  71 F= -.73429354E+03 E0= -.73429354E+03  d E =0.218831E+01
 curvature: -13.71 expect dE=-0.606E+02 dE for cont linesearch -0.246E+00
 ZBRENT: increasing intervall
 opt :   0.2942  next Energy=  -734.603433 (dE= 0.188E+01)
 bond charge predicted
       N       E                     dE             d eps       ncg     rms          rms(c)
DAV:   1    -0.729590383039E+03    0.47032E+01   -0.86114E+01  3312   0.205E+01BRMIX: very serious problems
 the old and the new charge density differ
 old charge density:   384.03837 new  384.11454
    0.180E+00
RMM:   2    -0.729668761260E+03   -0.78378E-01   -0.13454E+00  3036   0.261E+00    0.996E-01
RMM:   3    -0.729689427070E+03   -0.20666E-01   -0.21410E-01  3036   0.910E-01    0.268E-01
RMM:   4    -0.729696240291E+03   -0.68132E-02   -0.28197E-02  3068   0.306E-01    0.137E-01
RMM:   5    -0.729701622650E+03   -0.53824E-02   -0.57349E-03  3054   0.126E-01    0.350E-02
RMM:   6    -0.729702637714E+03   -0.10151E-02   -0.98684E-04  3082   0.498E-02    0.177E-02
RMM:   7    -0.729703568594E+03   -0.93088E-03   -0.19808E-04  3053   0.214E-02    0.529E-03
RMM:   8    -0.729703873088E+03   -0.30449E-03   -0.39504E-05  3023   0.922E-03    0.203E-03
RMM:   9    -0.729704032426E+03   -0.15934E-03   -0.11513E-05  2299   0.433E-03    0.737E-04
RMM:  10    -0.729704101649E+03   -0.69223E-04   -0.21249E-06  2036   0.185E-03    0.404E-04
RMM:  11    -0.729704151458E+03   -0.49809E-04   -0.58940E-07  1565   0.880E-04    0.939E-05
RMM:  12    -0.729704168575E+03   -0.17117E-04   -0.12373E-07  1041   0.511E-04    0.585E-05
RMM:  13    -0.729704180067E+03   -0.11492E-04   -0.32134E-08   889   0.396E-04    0.170E-05
RMM:  14    -0.729704183575E+03   -0.35073E-05   -0.58014E-09   776   0.350E-04    0.613E-06
RMM:  15    -0.729704185027E+03   -0.14526E-05   -0.24053E-10   734   0.341E-04    0.264E-06
RMM:  16    -0.729704185237E+03   -0.20992E-06   -0.11797E-10   728   0.340E-04
  72 F= -.72970419E+03 E0= -.72970419E+03  d E =0.677766E+01
 curvature: -17.30 expect dE=-0.262E+03 dE for cont linesearch -0.176E+01
 ZBRENT: increasing intervall
 opt :   0.5889  next Energy=  -731.341887 (dE= 0.514E+01)
 bond charge predicted
       N       E                     dE             d eps       ncg     rms          rms(c)
DAV:   1    -0.713072566983E+03    0.16632E+02   -0.34672E+02  3264   0.411E+01BRMIX: very serious problems
 the old and the new charge density differ
 old charge density:   384.11280 new  384.39096
    0.401E+00
RMM:   2    -0.713399991219E+03   -0.32742E+00   -0.60434E+00  3036   0.545E+00BRMIX: very serious problems
 the old and the new charge density differ
 old charge density:   384.39096 new  384.38431
    0.223E+00
RMM:   3    -0.713458071198E+03   -0.58080E-01   -0.96179E-01  3036   0.190E+00    0.654E-01
RMM:   4    -0.713486261411E+03   -0.28190E-01   -0.14778E-01  3077   0.657E-01    0.310E-01
RMM:   5    -0.713502923204E+03   -0.16662E-01   -0.26770E-02  3060   0.270E-01    0.818E-02
RMM:   6    -0.713507833475E+03   -0.49103E-02   -0.49466E-03  3093   0.109E-01    0.381E-02
RMM:   7    -0.713511524439E+03   -0.36910E-02   -0.95196E-04  3066   0.471E-02    0.107E-02
RMM:   8    -0.713513025319E+03   -0.15009E-02   -0.19948E-04  3081   0.205E-02    0.416E-03
RMM:   9    -0.713513808391E+03   -0.78307E-03   -0.54567E-05  3052   0.962E-03    0.161E-03
RMM:  10    -0.713514277771E+03   -0.46938E-03   -0.10324E-05  2266   0.425E-03    0.788E-04
RMM:  11    -0.713514480036E+03   -0.20227E-03   -0.29732E-06  2039   0.199E-03    0.188E-04
RMM:  12    -0.713514560866E+03   -0.80830E-04   -0.64176E-07  1717   0.972E-04    0.129E-04
RMM:  13    -0.713514604786E+03   -0.43919E-04   -0.16259E-07  1079   0.531E-04    0.364E-05
RMM:  14    -0.713514616993E+03   -0.12207E-04   -0.40764E-08   892   0.394E-04    0.174E-05
RMM:  15    -0.713514621601E+03   -0.46077E-05   -0.85534E-09   795   0.344E-04    0.627E-06
RMM:  16    -0.713514621611E+03   -0.99416E-08   -0.19201E-10   733   0.330E-04
  73 F= -.71351462E+03 E0= -.71351462E+03  d E =0.229672E+02
 curvature: -16.08 expect dE=-0.124E+04 dE for cont linesearch -0.219E+02
 ZBRENT: increasing intervall
 opt :   1.1781  next Energy=  -726.606791 (dE= 0.988E+01)
 bond charge predicted
       N       E                     dE             d eps       ncg     rms          rms(c)
DAV:   1    -0.654836328684E+03    0.58678E+02   -0.14110E+03  3220   0.828E+01BRMIX: very serious problems
 the old and the new charge density differ
 old charge density:   384.38451 new  385.47427
    0.107E+01
RMM:   2    -0.656362916936E+03   -0.15266E+01   -0.33062E+01  3036   0.125E+01BRMIX: very serious problems
 the old and the new charge density differ
 old charge density:   385.47427 new  385.45417
    0.595E+00
RMM:   3    -0.656410218103E+03   -0.47301E-01   -0.52672E+00  3059   0.424E+00    0.244E+00
RMM:   4    -0.656420271147E+03   -0.10053E-01   -0.91241E-01  3122   0.155E+00BRMIX: very serious problems
 the old and the new charge density differ
 old charge density:   385.45635 new  385.45123
    0.840E-01
RMM:   5    -0.656434233802E+03   -0.13963E-01   -0.13862E-01  3099   0.608E-01    0.239E-01
RMM:   6    -0.656457421820E+03   -0.23188E-01   -0.26392E-02  3114   0.253E-01    0.705E-02
RMM:   7    -0.656466278066E+03   -0.88562E-02   -0.55635E-03  3137   0.111E-01    0.325E-02
RMM:   8    -0.656474235550E+03   -0.79575E-02   -0.98558E-04  3097   0.470E-02    0.818E-03
RMM:   9    -0.656476805592E+03   -0.25700E-02   -0.23541E-04  3146   0.220E-02    0.439E-03
RMM:  10    -0.656478991440E+03   -0.21858E-02   -0.51883E-05  3045   0.995E-03    0.152E-03
RMM:  11    -0.656479924975E+03   -0.93354E-03   -0.13449E-05  2478   0.486E-03    0.581E-04
RMM:  12    -0.656480284150E+03   -0.35918E-03   -0.29947E-06  2040   0.216E-03    0.239E-04
RMM:  13    -0.656480483858E+03   -0.19971E-03   -0.69368E-07  1870   0.105E-03    0.117E-04
RMM:  14    -0.656480482800E+03    0.10580E-05   -0.16447E-07  1153   0.537E-04    0.398E-05
RMM:  15    -0.656480490738E+03   -0.79380E-05   -0.37230E-08   863   0.383E-04    0.192E-05
RMM:  16    -0.656480488915E+03    0.18223E-05   -0.72713E-09   774   0.338E-04    0.702E-06
RMM:  17    -0.656480489072E+03   -0.15663E-06   -0.11229E-10   724   0.326E-04
  74 F= -.65648049E+03 E0= -.65648049E+03  d E =0.800014E+02
 curvature:  -9.60 expect dE=-0.639E+04 dE for cont linesearch -0.395E+03
 ZBRENT: increasing intervall
 opt :   2.3566  next Energy=  -807.845944 (dE=-0.714E+02)
 bond charge predicted
 -----------------------------------------------------------------------------
|                                                                             |
|           W    W    AA    RRRRR   N    N  II  N    N   GGGG   !!!           |
|           W    W   A  A   R    R  NN   N  II  NN   N  G    G  !!!           |
|           W    W  A    A  R    R  N N  N  II  N N  N  G       !!!           |
|           W WW W  AAAAAA  RRRRR   N  N N  II  N  N N  G  GGG   !            |
|           WW  WW  A    A  R   R   N   NN  II  N   NN  G    G                |
|           W    W  A    A  R    R  N    N  II  N    N   GGGG   !!!           |
|                                                                             |
|     Tetrahedron method does not include variations of the Fermi             |
|     occupations, so forces and stress will be inaccurate. We suggest        |
|     using a different smearing scheme ISMEAR = 1 or 2 for metals in         |
|     relaxations.                                                            |
|                                                                             |
 -----------------------------------------------------------------------------

       N       E                     dE             d eps       ncg     rms          rms(c)
DAV:   1    -0.512694513531E+03    0.14379E+03   -0.60215E+03  3104   0.169E+02BRMIX: very serious problems
 the old and the new charge density differ
 old charge density:   385.45012 new  389.78313
    0.334E+01
RMM:   2    -0.524227898492E+03   -0.11533E+02   -0.25537E+02  3038   0.338E+01BRMIX: very serious problems
 the old and the new charge density differ
 old charge density:   389.78313 new  389.69544
    0.178E+01
RMM:   3    -0.524586791899E+03   -0.35889E+00   -0.45750E+01  3183   0.113E+01BRMIX: very serious problems
 the old and the new charge density differ
 old charge density:   389.69544 new  389.58074
    0.100E+01
RMM:   4    -0.522383925717E+03    0.22029E+01   -0.70466E+00  3173   0.431E+00BRMIX: very serious problems
 the old and the new charge density differ
 old charge density:   389.58074 new  389.53272
    0.263E+00
RMM:   5    -0.522005328626E+03    0.37860E+00   -0.13465E+00  3265   0.173E+00BRMIX: very serious problems
 the old and the new charge density differ
 old charge density:   389.53272 new  389.50745
    0.101E+00
RMM:   6    -0.521950866454E+03    0.54462E-01   -0.21012E-01  3232   0.713E-01BRMIX: very serious problems
 the old and the new charge density differ
 old charge density:   389.50745 new  389.50323
    0.428E-01
RMM:   7    -0.521904381469E+03    0.46485E-01   -0.41145E-02  3273   0.311E-01    0.123E-01
RMM:   8    -0.521895841711E+03    0.85398E-02   -0.70119E-03  3285   0.131E-01    0.399E-02
RMM:   9    -0.521896964320E+03   -0.11226E-02   -0.15011E-03  3240   0.599E-02    0.140E-02
RMM:  10    -0.521897873640E+03   -0.90932E-03   -0.35100E-04  3260   0.275E-02    0.459E-03
RMM:  11    -0.521898076221E+03   -0.20258E-03   -0.78776E-05  3117   0.127E-02    0.199E-03
RMM:  12    -0.521898217559E+03   -0.14134E-03   -0.16310E-05  2632   0.587E-03    0.700E-04
RMM:  13    -0.521898222061E+03   -0.45024E-05   -0.39201E-06  2127   0.284E-03    0.328E-04
RMM:  14    -0.521898179551E+03    0.42511E-04   -0.10551E-06  1837   0.139E-03    0.993E-05
RMM:  15    -0.521898159828E+03    0.19723E-04   -0.25970E-07  1396   0.714E-04    0.612E-05
RMM:  16    -0.521898139818E+03    0.20010E-04   -0.65539E-08   999   0.454E-04    0.166E-05
RMM:  17    -0.521898129357E+03    0.10460E-04   -0.15719E-08   811   0.366E-04    0.833E-06
RMM:  18    -0.521898122342E+03    0.70156E-05   -0.21870E-09   736   0.346E-04    0.292E-06
RMM:  19    -0.521898121026E+03    0.13161E-05   -0.13632E-10   713   0.343E-04    0.129E-06
RMM:  20    -0.521898119869E+03    0.11564E-05    0.72347E-12   710   0.343E-04    0.578E-07
RMM:  21    -0.521898119524E+03    0.34542E-06    0.96926E-12   709   0.343E-04
  75 F= -.52189812E+03 E0= -.52189812E+03  d E =0.214584E+03
 curvature:  -3.68 expect dE=-0.261E+05 dE for cont linesearch -0.495E+04
 ZBRENT: increasing intervall
 opt :   4.7136  next Energy= -2260.265512 (dE=-0.152E+04)
 bond charge predicted
 -----------------------------------------------------------------------------
|                                                                             |
|           W    W    AA    RRRRR   N    N  II  N    N   GGGG   !!!           |
|           W    W   A  A   R    R  NN   N  II  NN   N  G    G  !!!           |
|           W    W  A    A  R    R  N N  N  II  N N  N  G       !!!           |
|           W WW W  AAAAAA  RRRRR   N  N N  II  N  N N  G  GGG   !            |
|           WW  WW  A    A  R   R   N   NN  II  N   NN  G    G                |
|           W    W  A    A  R    R  N    N  II  N    N   GGGG   !!!           |
|                                                                             |
|     Tetrahedron method does not include variations of the Fermi             |
|     occupations, so forces and stress will be inaccurate. We suggest        |
|     using a different smearing scheme ISMEAR = 1 or 2 for metals in         |
|     relaxations.                                                            |
|                                                                             |
 -----------------------------------------------------------------------------

       N       E                     dE             d eps       ncg     rms          rms(c)
DAV:   1     0.196465462335E+02    0.54154E+03   -0.32028E+04  3185   0.396E+02BRMIX: very serious problems
 the old and the new charge density differ
 old charge density:   389.49897 new  440.88137
    0.143E+02
RMM:   2    -0.112526139953E+03   -0.13217E+03   -0.30164E+03  3186   0.113E+02BRMIX: very serious problems
 the old and the new charge density differ
 old charge density:   440.88137 new  433.15933
    0.756E+01
RMM:   3    -0.188062348097E+03   -0.75536E+02   -0.73320E+02  3414   0.388E+01BRMIX: very serious problems
 the old and the new charge density differ
 old charge density:   433.15933 new  428.34865
    0.389E+01
RMM:   4    -0.220207261356E+03   -0.32145E+02   -0.17386E+02  3415   0.178E+01BRMIX: very serious problems
 the old and the new charge density differ
 old charge density:   428.34865 new  426.78233
    0.127E+01
RMM:   5    -0.226755885417E+03   -0.65486E+01   -0.32231E+01  3417   0.713E+00BRMIX: very serious problems
 the old and the new charge density differ
 old charge density:   426.78233 new  426.14175
    0.608E+00
RMM:   6    -0.223900159260E+03    0.28557E+01   -0.66676E+00  3367   0.334E+00BRMIX: very serious problems
 the old and the new charge density differ
 old charge density:   426.14175 new  426.14651
    0.207E+00
RMM:   7    -0.223964237943E+03   -0.64079E-01   -0.16967E+00  3444   0.152E+00BRMIX: very serious problems
 the old and the new charge density differ
 old charge density:   426.14651 new  426.10873
    0.866E-01
RMM:   8    -0.223879780597E+03    0.84457E-01   -0.38861E-01  3362   0.677E-01BRMIX: very serious problems
 the old and the new charge density differ
 old charge density:   426.10873 new  426.12198
    0.526E-01
RMM:   9    -0.224133597319E+03   -0.25382E+00   -0.14468E-01  3247   0.368E-01BRMIX: very serious problems
 the old and the new charge density differ
 old charge density:   426.12198 new  426.16914
    0.359E-01
RMM:  10    -0.224153402108E+03   -0.19805E-01   -0.55529E-02  3417   0.167E-01    0.300E-01
RMM:  11    -0.224251921869E+03   -0.98520E-01   -0.12601E-02  3109   0.124E-01BRMIX: very serious problems
 the old and the new charge density differ
 old charge density:   426.16689 new  426.15411
    0.113E-01
RMM:  12    -0.224245695948E+03    0.62259E-02   -0.30417E-03  3175   0.655E-02    0.405E-02
RMM:  13    -0.224236606209E+03    0.90897E-02   -0.69087E-04  3361   0.313E-02    0.126E-02
RMM:  14    -0.224231716794E+03    0.48894E-02   -0.14172E-04  3268   0.145E-02    0.533E-03
RMM:  15    -0.224232954751E+03   -0.12380E-02   -0.28072E-05  3037   0.650E-03    0.229E-03
RMM:  16    -0.224233539019E+03   -0.58427E-03   -0.57344E-06  2181   0.304E-03    0.131E-03
RMM:  17    -0.224234480646E+03   -0.94163E-03   -0.12819E-06  1941   0.145E-03    0.413E-04
RMM:  18    -0.224234570441E+03   -0.89794E-04   -0.33529E-07  1638   0.766E-04    0.160E-04
RMM:  19    -0.224234817001E+03   -0.24656E-03   -0.95360E-08  1080   0.469E-04    0.596E-05
RMM:  20    -0.224234862931E+03   -0.45929E-04   -0.41293E-08   854   0.389E-04    0.446E-05
RMM:  21    -0.224234862289E+03    0.64143E-06   -0.21211E-08   778   0.368E-04
  76 F= -.22423486E+03 E0= -.22423486E+03  d E =0.512247E+03
 curvature:  -1.29 expect dE=-0.267E+06 dE for cont linesearch -0.838E+05
 ZBRENT: increasing intervall
 opt :   9.4277  next Energy=-24765.959483 (dE=-0.240E+05)
 bond charge predicted
 -----------------------------------------------------------------------------
|                                                                             |
|           W    W    AA    RRRRR   N    N  II  N    N   GGGG   !!!           |
|           W    W   A  A   R    R  NN   N  II  NN   N  G    G  !!!           |
|           W    W  A    A  R    R  N N  N  II  N N  N  G       !!!           |
|           W WW W  AAAAAA  RRRRR   N  N N  II  N  N N  G  GGG   !            |
|           WW  WW  A    A  R   R   N   NN  II  N   NN  G    G                |
|           W    W  A    A  R    R  N    N  II  N    N   GGGG   !!!           |
|                                                                             |
|     Tetrahedron method does not include variations of the Fermi             |
|     occupations, so forces and stress will be inaccurate. We suggest        |
|     using a different smearing scheme ISMEAR = 1 or 2 for metals in         |
|     relaxations.                                                            |
|                                                                             |
 -----------------------------------------------------------------------------

       N       E                     dE             d eps       ncg     rms          rms(c)
srun: Job step aborted: Waiting up to 32 seconds for job step to finish.
slurmstepd: error: *** STEP 26047106.2 ON c1000a-s23 CANCELLED AT 2022-04-19T16:15:59 ***
