<?xml version="1.0" encoding="ISO-8859-1"?>
<modeling>
 <generator>
  <i name="program" type="string">vasp </i>
  <i name="version" type="string">6.2.0  </i>
  <i name="subversion" type="string">18Jan21 (build Feb 25 2021 07:51:20) complex                          parallel </i>
  <i name="platform" type="string">LinuxPGI </i>
  <i name="date" type="string">2022 04 13 </i>
  <i name="time" type="string">14:35:56 </i>
 </generator>
 <incar>
  <i type="string" name="PREC">Accurate</i>
  <i type="string" name="ALGO">Fast</i>
  <i type="int" name="IBRION">     2</i>
  <i name="EDIFF">      0.00000100</i>
  <i type="int" name="NSW">   300</i>
  <i type="int" name="ISIF">     4</i>
  <i name="ENCUT">    700.00000000</i>
  <i type="string" name="LREAL">Auto</i>
  <i type="int" name="ISMEAR">    -5</i>
  <i name="SIGMA">      0.05000000</i>
  <i type="logical" name="LWAVE"> F  </i>
 </incar>
 <primitive_cell>
  <structure name="primitive_cell" >
   <crystal>
    <varray name="basis" >
     <v>      -1.15935150      -3.94120200      -1.85628400 </v>
     <v>       0.02228150      -0.03119900      -4.50793550 </v>
     <v>       4.00162950       0.02173750       1.81526600 </v>
    </varray>
    <i name="volume">     70.97450035 </i>
    <varray name="rec_basis" >
     <v>       0.00058270      -0.25473282       0.00176586 </v>
     <v>       0.10023289       0.07500764      -0.22185473 </v>
     <v>       0.24950891      -0.07421880       0.00174692 </v>
    </varray>
   </crystal>
   <varray name="positions" >
    <v>       0.19248400       0.19248400       0.31584600 </v>
    <v>       0.19532400       0.68556000       0.80326400 </v>
    <v>       0.68556000       0.19532400       0.80326400 </v>
    <v>       0.80667000       0.80667000       0.68273200 </v>
    <v>       0.80632800       0.31257800       0.19740000 </v>
    <v>       0.31257800       0.80632800       0.19740000 </v>
    <v>       0.00520200       0.32640400       0.98889400 </v>
    <v>       0.32640400       0.00520200       0.98889400 </v>
    <v>       0.99410000       0.99410000       0.34159000 </v>
    <v>       0.99449000       0.67127600       0.00695000 </v>
    <v>       0.67127600       0.99449000       0.00695000 </v>
    <v>       0.50198200       0.50198200       0.49599000 </v>
    <v>       0.00414400       0.00414400       0.67667200 </v>
    <v>       0.38112600       0.38112600       0.61217600 </v>
    <v>       0.62233000       0.62233000       0.38197800 </v>
   </varray>
  </structure>
  <varray name="primitive_index" >
   <v type="int" >        1 </v>
   <v type="int" >        9 </v>
   <v type="int" >       17 </v>
   <v type="int" >       28 </v>
   <v type="int" >       35 </v>
   <v type="int" >       42 </v>
   <v type="int" >       53 </v>
   <v type="int" >       61 </v>
   <v type="int" >       68 </v>
   <v type="int" >       75 </v>
   <v type="int" >       82 </v>
   <v type="int" >       89 </v>
   <v type="int" >       97 </v>
   <v type="int" >      105 </v>
   <v type="int" >      113 </v>
  </varray>
 </primitive_cell>
 <kpoints>
  <generation param="Gamma">
   <v type="int" name="divisions">       2        2        2 </v>
   <v name="usershift">      0.00000000       0.00000000       0.00000000 </v>
   <v name="genvec1">      0.50000000      -0.00000000      -0.00000000 </v>
   <v name="genvec2">      0.00000000       0.50000000       0.00000000 </v>
   <v name="genvec3">      0.00000000       0.00000000       0.50000000 </v>
   <v name="shift">      0.00000000       0.00000000       0.00000000 </v>
  </generation>
  <varray name="kpointlist" >
   <v>       0.00000000       0.00000000       0.00000000 </v>
   <v>       0.50000000       0.00000000       0.00000000 </v>
   <v>       0.00000000       0.50000000       0.00000000 </v>
   <v>       0.50000000       0.50000000       0.00000000 </v>
   <v>       0.00000000       0.50000000       0.50000000 </v>
   <v>       0.50000000       0.50000000       0.50000000 </v>
  </varray>
  <varray name="weights" >
   <v>       0.12500000 </v>
   <v>       0.12500000 </v>
   <v>       0.25000000 </v>
   <v>       0.25000000 </v>
   <v>       0.12500000 </v>
   <v>       0.12500000 </v>
  </varray>
  <varray name="tetrahedronlist"  type="int" >
   <v type="int" >        4        1        3        4        6 </v>
   <v type="int" >        4        1        2        4        6 </v>
   <v type="int" >        4        1        3        5        6 </v>
   <v type="int" >        4        2        3        4        5 </v>
   <v type="int" >        4        1        2        3        5 </v>
   <v type="int" >        4        2        4        5        6 </v>
   <v type="int" >        4        1        2        3        4 </v>
   <v type="int" >        4        2        3        4        4 </v>
   <v type="int" >        4        3        4        4        6 </v>
   <v type="int" >        4        1        3        3        4 </v>
   <v type="int" >        4        3        3        4        5 </v>
   <v type="int" >        4        3        4        5        6 </v>
  </varray>
  <i name="volumeweight">      0.02083333 </i>
 </kpoints>
 <parameters>
  <separator name="general" >
   <i type="string" name="SYSTEM">unknown system</i>
   <i type="logical" name="LCOMPAT"> F  </i>
  </separator>
  <separator name="electronic" >
   <i type="string" name="PREC">accura</i>
   <i name="ENMAX">    700.00000000</i>
   <i name="ENAUG">    644.87300000</i>
   <i name="EDIFF">      0.00000100</i>
   <i type="int" name="IALGO">    68</i>
   <i type="int" name="IWAVPR">    11</i>
   <i type="int" name="NBANDS">   253</i>
   <i type="int" name="NBANDSLOW">    -1</i>
   <i type="int" name="NBANDSHIGH">    -1</i>
   <i name="NELECT">    384.00000000</i>
   <i type="int" name="TURBO">     0</i>
   <i type="int" name="IRESTART">     0</i>
   <i type="int" name="NREBOOT">     0</i>
   <i type="int" name="NMIN">     0</i>
   <i name="EREF">      0.00000000</i>
   <separator name="electronic smearing" >
    <i type="int" name="ISMEAR">    -5</i>
    <i name="SIGMA">      0.05000000</i>
    <i name="KSPACING">      0.50000000</i>
    <i type="logical" name="KGAMMA"> T  </i>
    <i type="logical" name="KBLOWUP"> T  </i>
   </separator>
   <separator name="electronic projectors" >
    <i type="logical" name="LREAL"> T  </i>
    <v name="ROPT">     -0.00025000     -0.00025000</v>
    <i type="int" name="LMAXPAW">  -100</i>
    <i type="int" name="LMAXMIX">     2</i>
    <i type="logical" name="NLSPLINE"> F  </i>
   </separator>
   <separator name="electronic startup" >
    <i type="int" name="ISTART">     0</i>
    <i type="int" name="ICHARG">     2</i>
    <i type="int" name="INIWAV">     1</i>
   </separator>
   <separator name="electronic spin" >
    <i type="int" name="ISPIN">     1</i>
    <i type="logical" name="LNONCOLLINEAR"> F  </i>
    <v name="MAGMOM">      1.00000000      1.00000000      1.00000000      1.00000000      1.00000000      1.00000000      1.00000000      1.00000000      1.00000000      1.00000000      1.00000000      1.00000000      1.00000000      1.00000000      1.00000000      1.00000000      1.00000000      1.00000000      1.00000000      1.00000000
      1.00000000      1.00000000      1.00000000      1.00000000      1.00000000      1.00000000      1.00000000      1.00000000      1.00000000      1.00000000      1.00000000      1.00000000      1.00000000      1.00000000      1.00000000      1.00000000      1.00000000      1.00000000      1.00000000      1.00000000
      1.00000000      1.00000000      1.00000000      1.00000000      1.00000000      1.00000000      1.00000000      1.00000000      1.00000000      1.00000000      1.00000000      1.00000000      1.00000000      1.00000000      1.00000000      1.00000000      1.00000000      1.00000000      1.00000000      1.00000000
      1.00000000      1.00000000      1.00000000      1.00000000      1.00000000      1.00000000      1.00000000      1.00000000      1.00000000      1.00000000      1.00000000      1.00000000      1.00000000      1.00000000      1.00000000      1.00000000      1.00000000      1.00000000      1.00000000      1.00000000
      1.00000000      1.00000000      1.00000000      1.00000000      1.00000000      1.00000000      1.00000000      1.00000000      1.00000000      1.00000000      1.00000000      1.00000000      1.00000000      1.00000000      1.00000000      1.00000000      1.00000000      1.00000000      1.00000000      1.00000000
      1.00000000      1.00000000      1.00000000      1.00000000      1.00000000      1.00000000      1.00000000      1.00000000      1.00000000      1.00000000      1.00000000      1.00000000      1.00000000      1.00000000      1.00000000      1.00000000      1.00000000      1.00000000      1.00000000      1.00000000
</v>
    <i name="NUPDOWN">     -1.00000000</i>
    <i type="logical" name="LSORBIT"> F  </i>
    <v name="SAXIS">      0.00000000      0.00000000      1.00000000</v>
    <i type="logical" name="LSPIRAL"> F  </i>
    <v name="QSPIRAL">      0.00000000      0.00000000      0.00000000</v>
    <i type="logical" name="LZEROZ"> F  </i>
   </separator>
   <separator name="electronic exchange-correlation" >
    <i type="logical" name="LASPH"> F  </i>
    <i type="logical" name="LMETAGGA"> F  </i>
   </separator>
   <separator name="electronic convergence" >
    <i type="int" name="NELM">    60</i>
    <i type="int" name="NELMDL">    -5</i>
    <i type="int" name="NELMIN">     2</i>
    <i name="ENINI">    700.00000000</i>
    <separator name="electronic convergence detail" >
     <i type="logical" name="LDIAG"> T  </i>
     <i type="logical" name="LSUBROT"> F  </i>
     <i name="WEIMIN">      0.00100000</i>
     <i name="EBREAK">      0.00000000</i>
     <i name="DEPER">      0.30000000</i>
     <i type="int" name="NRMM">     4</i>
     <i name="TIME">      0.40000000</i>
    </separator>
   </separator>
   <separator name="electronic mixer" >
    <i name="AMIX">      0.40000000</i>
    <i name="BMIX">      1.00000000</i>
    <i name="AMIN">      0.10000000</i>
    <i name="AMIX_MAG">      1.60000000</i>
    <i name="BMIX_MAG">      1.00000000</i>
    <separator name="electronic mixer details" >
     <i type="int" name="IMIX">     4</i>
     <i type="logical" name="MIXFIRST"> F  </i>
     <i type="int" name="MAXMIX">   -45</i>
     <i name="WC">    100.00000000</i>
     <i type="int" name="INIMIX">     1</i>
     <i type="int" name="MIXPRE">     1</i>
     <i type="int" name="MREMOVE">     5</i>
    </separator>
   </separator>
   <separator name="electronic dipolcorrection" >
    <i type="logical" name="LDIPOL"> F  </i>
    <i type="logical" name="LMONO"> F  </i>
    <i type="int" name="IDIPOL">     0</i>
    <i name="EPSILON">      1.00000000</i>
    <v name="DIPOL">   -100.00000000   -100.00000000   -100.00000000</v>
    <i name="EFIELD">      0.00000000</i>
   </separator>
  </separator>
  <separator name="grids" >
   <i type="int" name="NGX">    80</i>
   <i type="int" name="NGY">    80</i>
   <i type="int" name="NGZ">    80</i>
   <i type="int" name="NGXF">   160</i>
   <i type="int" name="NGYF">   160</i>
   <i type="int" name="NGZF">   160</i>
   <i type="logical" name="ADDGRID"> F  </i>
  </separator>
  <separator name="ionic" >
   <i type="int" name="NSW">   300</i>
   <i type="int" name="IBRION">     2</i>
   <i type="int" name="MDALGO">     0</i>
   <i type="int" name="ISIF">     4</i>
   <i name="PSTRESS">      0.00000000</i>
   <i name="EDIFFG">      0.00001000</i>
   <i type="int" name="NFREE">     1</i>
   <i name="POTIM">      0.50000000</i>
   <i name="SMASS">     -3.00000000</i>
   <i name="SCALEE">      1.00000000</i>
  </separator>
  <separator name="ionic md" >
   <i name="TEBEG">      0.00010000</i>
   <i name="TEEND">      0.00010000</i>
   <i type="int" name="NBLOCK">     1</i>
   <i type="int" name="KBLOCK">   300</i>
   <i type="int" name="NPACO">   256</i>
   <i name="APACO">     16.00000000</i>
  </separator>
  <separator name="symmetry" >
   <i type="int" name="ISYM">     2</i>
   <i name="SYMPREC">      0.00001000</i>
  </separator>
  <separator name="dos" >
   <i type="int" name="LORBIT">     0</i>
   <v name="RWIGS">     -1.00000000     -1.00000000</v>
   <i type="int" name="NEDOS">   301</i>
   <i name="EMIN">     10.00000000</i>
   <i name="EMAX">    -10.00000000</i>
   <i name="EFERMI">      0.00000000</i>
  </separator>
  <separator name="writing" >
   <i type="int" name="NWRITE">     2</i>
   <i type="logical" name="LWAVE"> F  </i>
   <i type="logical" name="LDOWNSAMPLE"> F  </i>
   <i type="logical" name="LCHARG"> T  </i>
   <i type="logical" name="LPARD"> F  </i>
   <i type="logical" name="LVTOT"> F  </i>
   <i type="logical" name="LVHAR"> F  </i>
   <i type="logical" name="LELF"> F  </i>
   <i type="logical" name="LOPTICS"> F  </i>
   <v name="STM">      0.00000000      0.00000000      0.00000000      0.00000000      0.00000000      0.00000000      0.00000000</v>
  </separator>
  <separator name="performance" >
   <i type="int" name="NPAR">     1</i>
   <i type="int" name="NSIM">     4</i>
   <i type="int" name="NBLK">    -1</i>
   <i type="logical" name="LPLANE"> T  </i>
   <i type="logical" name="LSCALAPACK"> T  </i>
   <i type="logical" name="LSCAAWARE"> F  </i>
   <i type="logical" name="LSCALU"> F  </i>
   <i type="logical" name="LASYNC"> F  </i>
   <i type="logical" name="LORBITALREAL"> F  </i>
  </separator>
  <separator name="miscellaneous" >
   <i type="int" name="IDIOT">     3</i>
   <i type="int" name="PHON_NSTRUCT">    -1</i>
   <i type="logical" name="LMUSIC"> F  </i>
   <v name="POMASS">     10.81100000     12.01100000</v>
   <v name="DARWINR">      0.00000000      0.00000000</v>
   <v name="DARWINV">      1.00000000      1.00000000</v>
   <i type="logical" name="LCORR"> T  </i>
  </separator>
  <i type="logical" name="GGA_COMPAT"> T  </i>
  <i type="logical" name="LBERRY"> F  </i>
  <i type="int" name="ICORELEVEL">     0</i>
  <i type="logical" name="LDAU"> F  </i>
  <i type="int" name="I_CONSTRAINED_M">     0</i>
  <separator name="electronic exchange-correlation" >
   <i type="string" name="GGA">--</i>
   <i type="int" name="VOSKOWN">     0</i>
   <i type="logical" name="LHFCALC"> F  </i>
   <i type="string" name="PRECFOCK"></i>
   <i type="logical" name="LSYMGRAD"> F  </i>
   <i type="logical" name="LHFONE"> F  </i>
   <i type="logical" name="LRHFCALC"> F  </i>
   <i type="logical" name="LTHOMAS"> F  </i>
   <i type="logical" name="LMODELHF"> F  </i>
   <i type="logical" name="LFOCKACE"> F  </i>
   <i name="ENCUT4O">     -1.00000000</i>
   <i type="int" name="EXXOEP">     0</i>
   <i type="int" name="FOURORBIT">     0</i>
   <i name="AEXX">      0.00000000</i>
   <i name="HFALPHA">      0.00000000</i>
   <i name="MCALPHA">      0.00000000</i>
   <i name="ALDAX">      1.00000000</i>
   <i name="AGGAX">      1.00000000</i>
   <i name="ALDAC">      1.00000000</i>
   <i name="AGGAC">      1.00000000</i>
   <i type="int" name="NKREDX">     1</i>
   <i type="int" name="NKREDY">     1</i>
   <i type="int" name="NKREDZ">     1</i>
   <i type="logical" name="SHIFTRED"> F  </i>
   <i type="logical" name="ODDONLY"> F  </i>
   <i type="logical" name="EVENONLY"> F  </i>
   <i type="int" name="LMAXFOCK">     0</i>
   <i type="int" name="NMAXFOCKAE">     0</i>
   <i type="logical" name="LFOCKAEDFT"> F  </i>
   <i name="HFSCREEN">      0.00000000</i>
   <i name="HFSCREENC">      0.00000000</i>
   <i type="int" name="NBANDSGWLOW">     0</i>
  </separator>
  <separator name="vdW DFT" >
   <i type="logical" name="LUSE_VDW"> F  </i>
   <i name="Zab_VDW">     -0.84910000</i>
   <i name="PARAM1">      0.12340000</i>
   <i name="PARAM2">      1.00000000</i>
   <i name="PARAM3">      0.00000000</i>
  </separator>
  <separator name="model GW" >
   <i type="int" name="MODEL_GW">     0</i>
   <i name="MODEL_EPS0">      2.83898001</i>
   <i name="MODEL_ALPHA">      1.00000000</i>
  </separator>
  <separator name="linear response parameters" >
   <i type="logical" name="LEPSILON"> F  </i>
   <i type="logical" name="LRPA"> F  </i>
   <i type="logical" name="LNABLA"> F  </i>
   <i type="logical" name="LVEL"> F  </i>
   <i type="int" name="KINTER">     0</i>
   <i name="CSHIFT">      0.10000000</i>
   <i name="OMEGAMAX">     -1.00000000</i>
   <i name="DEG_THRESHOLD">      0.00200000</i>
   <i name="RTIME">     -0.10000000</i>
   <i name="WPLASMAI">      0.00000000</i>
   <v name="DFIELD">      0.00000000      0.00000000      0.00000000</v>
   <v name="WPLASMA">      0.00000000      0.00000000      0.00000000      0.00000000      0.00000000      0.00000000      0.00000000      0.00000000      0.00000000</v>
  </separator>
  <separator name="orbital magnetization" >
   <i type="logical" name="NUCIND"> F  </i>
   <v name="MAGPOS">      0.00000000      0.00000000      0.00000000</v>
   <i type="logical" name="LNICSALL"> T  </i>
   <i type="logical" name="ORBITALMAG"> F  </i>
   <i type="logical" name="LMAGBLOCH"> F  </i>
   <i type="logical" name="LCHIMAG"> F  </i>
   <i type="logical" name="LGAUGE"> T  </i>
   <i type="int" name="MAGATOM">     0</i>
   <v name="MAGDIPOL">      0.00000000      0.00000000      0.00000000</v>
   <v name="AVECCONST">      0.00000000      0.00000000      0.00000000</v>
  </separator>
  <separator name="response functions" >
   <i type="logical" name="LFINITE_TEMPERATURE"> F  </i>
   <i type="logical" name="LADDER"> F  </i>
   <i type="logical" name="LRPAFORCE"> F  </i>
   <i type="logical" name="LFXC"> F  </i>
   <i type="logical" name="LHARTREE"> T  </i>
   <i type="int" name="IBSE">     0</i>
   <v type="int" name="KPOINT">    -1     0     0     0</v>
   <i type="logical" name="LTCTC"> F  </i>
   <i type="logical" name="LTCTE"> F  </i>
   <i type="logical" name="LTETE"> F  </i>
   <i type="logical" name="LTRIPLET"> F  </i>
   <i type="logical" name="LFXCEPS"> F  </i>
   <i type="logical" name="LFXHEG"> F  </i>
   <i type="int" name="NATURALO">     2</i>
   <i type="logical" name="LHOLEGF"> F  </i>
   <i type="logical" name="L2ORDER"> F  </i>
   <i type="logical" name="LDMP1"> F  </i>
   <i type="logical" name="LMP2LT"> F  </i>
   <i type="logical" name="LSMP2LT"> F  </i>
   <i type="logical" name="LGWLF"> F  </i>
   <i name="ENCUTGW">     -2.00000000</i>
   <i name="ENCUTGWSOFT">     -2.00000000</i>
   <i name="ENCUTLF">     -1.00000000</i>
   <i type="logical" name="LESF_SPLINES"> F  </i>
   <i type="int" name="LMAXMP2">    -1</i>
   <i name="SCISSOR">      0.00000000</i>
   <i type="int" name="NOMEGA">     0</i>
   <i type="int" name="NOMEGAR">     0</i>
   <i type="int" name="NBANDSGW">    -1</i>
   <i type="int" name="NBANDSO">    -1</i>
   <i type="int" name="NBANDSV">    -1</i>
   <i type="int" name="NELM">     1</i>
   <i type="int" name="NELMHF">     1</i>
   <i type="int" name="DIM">     3</i>
   <i type="int" name="IESPILON">     4</i>
   <i type="int" name="ANTIRES">     0</i>
   <i name="OMEGAMAX">    -30.00000000</i>
   <i name="OMEGAMIN">    -30.00000000</i>
   <i name="OMEGATL">   -200.00000000</i>
   <i type="int" name="OMEGAGRID">     0</i>
   <i name="CSHIFT">     -0.10000000</i>
   <i type="logical" name="LSELFENERGY"> F  </i>
   <i type="logical" name="LSPECTRAL"> F  </i>
   <i type="logical" name="LSPECTRALGW"> F  </i>
   <i type="logical" name="LSINGLES"> F  </i>
   <i type="logical" name="LFERMIGW"> F  </i>
   <i type="logical" name="ODDONLYGW"> F  </i>
   <i type="logical" name="EVENONLYGW"> F  </i>
   <i type="int" name="NKREDLFX">     1</i>
   <i type="int" name="NKREDLFY">     1</i>
   <i type="int" name="NKREDLFZ">     1</i>
   <i type="int" name="MAXMEM">  2800</i>
   <i type="int" name="TELESCOPE">     0</i>
   <i type="int" name="NTAUPAR">    -1</i>
   <i type="int" name="NOMEGAPAR">    -1</i>
   <i name="DAMP_NEWTON">      0.80000001</i>
   <i name="LAMBDA">      1.00000000</i>
  </separator>
  <separator name="External order field" >
   <i name="OFIELD_KAPPA">      0.00000000</i>
   <v name="OFIELD_K">      0.00000000      0.00000000      0.00000000</v>
   <i name="OFIELD_Q6_NEAR">      0.00000000</i>
   <i name="OFIELD_Q6_FAR">      0.00000000</i>
   <i name="OFIELD_A">      0.00000000</i>
  </separator>
 </parameters>
 <atominfo>
  <atoms>     120 </atoms>
  <types>       2 </types>
  <array name="atoms" >
   <dimension dim="1">ion</dimension>
   <field type="string">element</field>
   <field type="int">atomtype</field>
   <set>
    <rc><c>B </c><c>   1</c></rc>
    <rc><c>B </c><c>   1</c></rc>
    <rc><c>B </c><c>   1</c></rc>
    <rc><c>B </c><c>   1</c></rc>
    <rc><c>B </c><c>   1</c></rc>
    <rc><c>B </c><c>   1</c></rc>
    <rc><c>B </c><c>   1</c></rc>
    <rc><c>B </c><c>   1</c></rc>
    <rc><c>B </c><c>   1</c></rc>
    <rc><c>B </c><c>   1</c></rc>
    <rc><c>B </c><c>   1</c></rc>
    <rc><c>B </c><c>   1</c></rc>
    <rc><c>B </c><c>   1</c></rc>
    <rc><c>B </c><c>   1</c></rc>
    <rc><c>B </c><c>   1</c></rc>
    <rc><c>B </c><c>   1</c></rc>
    <rc><c>B </c><c>   1</c></rc>
    <rc><c>B </c><c>   1</c></rc>
    <rc><c>B </c><c>   1</c></rc>
    <rc><c>B </c><c>   1</c></rc>
    <rc><c>B </c><c>   1</c></rc>
    <rc><c>B </c><c>   1</c></rc>
    <rc><c>B </c><c>   1</c></rc>
    <rc><c>B </c><c>   1</c></rc>
    <rc><c>B </c><c>   1</c></rc>
    <rc><c>B </c><c>   1</c></rc>
    <rc><c>B </c><c>   1</c></rc>
    <rc><c>B </c><c>   1</c></rc>
    <rc><c>B </c><c>   1</c></rc>
    <rc><c>B </c><c>   1</c></rc>
    <rc><c>B </c><c>   1</c></rc>
    <rc><c>B </c><c>   1</c></rc>
    <rc><c>B </c><c>   1</c></rc>
    <rc><c>B </c><c>   1</c></rc>
    <rc><c>B </c><c>   1</c></rc>
    <rc><c>B </c><c>   1</c></rc>
    <rc><c>B </c><c>   1</c></rc>
    <rc><c>B </c><c>   1</c></rc>
    <rc><c>B </c><c>   1</c></rc>
    <rc><c>B </c><c>   1</c></rc>
    <rc><c>B </c><c>   1</c></rc>
    <rc><c>B </c><c>   1</c></rc>
    <rc><c>B </c><c>   1</c></rc>
    <rc><c>B </c><c>   1</c></rc>
    <rc><c>B </c><c>   1</c></rc>
    <rc><c>B </c><c>   1</c></rc>
    <rc><c>B </c><c>   1</c></rc>
    <rc><c>B </c><c>   1</c></rc>
    <rc><c>B </c><c>   1</c></rc>
    <rc><c>B </c><c>   1</c></rc>
    <rc><c>B </c><c>   1</c></rc>
    <rc><c>B </c><c>   1</c></rc>
    <rc><c>B </c><c>   1</c></rc>
    <rc><c>B </c><c>   1</c></rc>
    <rc><c>B </c><c>   1</c></rc>
    <rc><c>B </c><c>   1</c></rc>
    <rc><c>B </c><c>   1</c></rc>
    <rc><c>B </c><c>   1</c></rc>
    <rc><c>B </c><c>   1</c></rc>
    <rc><c>B </c><c>   1</c></rc>
    <rc><c>B </c><c>   1</c></rc>
    <rc><c>B </c><c>   1</c></rc>
    <rc><c>B </c><c>   1</c></rc>
    <rc><c>B </c><c>   1</c></rc>
    <rc><c>B </c><c>   1</c></rc>
    <rc><c>B </c><c>   1</c></rc>
    <rc><c>B </c><c>   1</c></rc>
    <rc><c>B </c><c>   1</c></rc>
    <rc><c>B </c><c>   1</c></rc>
    <rc><c>B </c><c>   1</c></rc>
    <rc><c>B </c><c>   1</c></rc>
    <rc><c>B </c><c>   1</c></rc>
    <rc><c>B </c><c>   1</c></rc>
    <rc><c>B </c><c>   1</c></rc>
    <rc><c>B </c><c>   1</c></rc>
    <rc><c>B </c><c>   1</c></rc>
    <rc><c>B </c><c>   1</c></rc>
    <rc><c>B </c><c>   1</c></rc>
    <rc><c>B </c><c>   1</c></rc>
    <rc><c>B </c><c>   1</c></rc>
    <rc><c>B </c><c>   1</c></rc>
    <rc><c>B </c><c>   1</c></rc>
    <rc><c>B </c><c>   1</c></rc>
    <rc><c>B </c><c>   1</c></rc>
    <rc><c>B </c><c>   1</c></rc>
    <rc><c>B </c><c>   1</c></rc>
    <rc><c>B </c><c>   1</c></rc>
    <rc><c>B </c><c>   1</c></rc>
    <rc><c>B </c><c>   1</c></rc>
    <rc><c>B </c><c>   1</c></rc>
    <rc><c>B </c><c>   1</c></rc>
    <rc><c>B </c><c>   1</c></rc>
    <rc><c>B </c><c>   1</c></rc>
    <rc><c>B </c><c>   1</c></rc>
    <rc><c>B </c><c>   1</c></rc>
    <rc><c>B </c><c>   1</c></rc>
    <rc><c>C </c><c>   2</c></rc>
    <rc><c>C </c><c>   2</c></rc>
    <rc><c>C </c><c>   2</c></rc>
    <rc><c>C </c><c>   2</c></rc>
    <rc><c>C </c><c>   2</c></rc>
    <rc><c>C </c><c>   2</c></rc>
    <rc><c>C </c><c>   2</c></rc>
    <rc><c>C </c><c>   2</c></rc>
    <rc><c>C </c><c>   2</c></rc>
    <rc><c>C </c><c>   2</c></rc>
    <rc><c>C </c><c>   2</c></rc>
    <rc><c>C </c><c>   2</c></rc>
    <rc><c>C </c><c>   2</c></rc>
    <rc><c>C </c><c>   2</c></rc>
    <rc><c>C </c><c>   2</c></rc>
    <rc><c>C </c><c>   2</c></rc>
    <rc><c>C </c><c>   2</c></rc>
    <rc><c>C </c><c>   2</c></rc>
    <rc><c>C </c><c>   2</c></rc>
    <rc><c>C </c><c>   2</c></rc>
    <rc><c>C </c><c>   2</c></rc>
    <rc><c>C </c><c>   2</c></rc>
    <rc><c>C </c><c>   2</c></rc>
    <rc><c>C </c><c>   2</c></rc>
   </set>
  </array>
  <array name="atomtypes" >
   <dimension dim="1">type</dimension>
   <field type="int">atomspertype</field>
   <field type="string">element</field>
   <field>mass</field>
   <field>valence</field>
   <field type="string">pseudopotential</field>
   <set>
    <rc><c>  96</c><c>B </c><c>     10.81100000</c><c>      3.00000000</c><c>  PAW_PBE B 06Sep2000                   </c></rc>
    <rc><c>  24</c><c>C </c><c>     12.01100000</c><c>      4.00000000</c><c>  PAW_PBE C 08Apr2002                   </c></rc>
   </set>
  </array>
 </atominfo>
 <structure name="initialpos" >
  <crystal>
   <varray name="basis" >
    <v>       8.00325900       0.04347500       3.63053200 </v>
    <v>       2.31870300       7.88240400       3.71256800 </v>
    <v>      -0.04456300       0.06239800       9.01587100 </v>
   </varray>
   <i name="volume">    567.79600283 </i>
   <varray name="rec_basis" >
    <v>       0.12475445      -0.03710940       0.00087346 </v>
    <v>      -0.00029135       0.12736641      -0.00088293 </v>
    <v>      -0.05011644      -0.03750382       0.11092737 </v>
   </varray>
  </crystal>
  <varray name="positions" >
   <v>       0.15792300       0.40375800       0.40375800 </v>
   <v>       0.15792300       0.40375800       0.90375800 </v>
   <v>       0.15792300       0.90375800       0.40375800 </v>
   <v>       0.15792300       0.90375800       0.90375800 </v>
   <v>       0.65792300       0.40375800       0.40375800 </v>
   <v>       0.65792300       0.40375800       0.90375800 </v>
   <v>       0.65792300       0.90375800       0.40375800 </v>
   <v>       0.65792300       0.90375800       0.90375800 </v>
   <v>       0.40163200       0.40233800       0.15722000 </v>
   <v>       0.40163200       0.40233800       0.65722000 </v>
   <v>       0.40163200       0.90233800       0.15722000 </v>
   <v>       0.40163200       0.90233800       0.65722000 </v>
   <v>       0.90163200       0.40233800       0.15722000 </v>
   <v>       0.90163200       0.40233800       0.65722000 </v>
   <v>       0.90163200       0.90233800       0.15722000 </v>
   <v>       0.90163200       0.90233800       0.65722000 </v>
   <v>       0.40163200       0.15722000       0.40233800 </v>
   <v>       0.40163200       0.15722000       0.90233800 </v>
   <v>       0.40163200       0.65722000       0.40233800 </v>
   <v>       0.40163200       0.65722000       0.90233800 </v>
   <v>       0.90163200       0.15722000       0.40233800 </v>
   <v>       0.90163200       0.15722000       0.90233800 </v>
   <v>       0.90163200       0.65722000       0.40233800 </v>
   <v>       0.90163200       0.65722000       0.90233800 </v>
   <v>       0.34136600       0.09666500       0.09666500 </v>
   <v>       0.34136600       0.09666500       0.59666500 </v>
   <v>       0.34136600       0.59666500       0.09666500 </v>
   <v>       0.34136600       0.59666500       0.59666500 </v>
   <v>       0.84136600       0.09666500       0.09666500 </v>
   <v>       0.84136600       0.09666500       0.59666500 </v>
   <v>       0.84136600       0.59666500       0.09666500 </v>
   <v>       0.84136600       0.59666500       0.59666500 </v>
   <v>       0.09870000       0.09683600       0.34371100 </v>
   <v>       0.09870000       0.09683600       0.84371100 </v>
   <v>       0.09870000       0.59683600       0.34371100 </v>
   <v>       0.09870000       0.59683600       0.84371100 </v>
   <v>       0.59870000       0.09683600       0.34371100 </v>
   <v>       0.59870000       0.09683600       0.84371100 </v>
   <v>       0.59870000       0.59683600       0.34371100 </v>
   <v>       0.59870000       0.59683600       0.84371100 </v>
   <v>       0.09870000       0.34371100       0.09683600 </v>
   <v>       0.09870000       0.34371100       0.59683600 </v>
   <v>       0.09870000       0.84371100       0.09683600 </v>
   <v>       0.09870000       0.84371100       0.59683600 </v>
   <v>       0.59870000       0.34371100       0.09683600 </v>
   <v>       0.59870000       0.34371100       0.59683600 </v>
   <v>       0.59870000       0.84371100       0.09683600 </v>
   <v>       0.59870000       0.84371100       0.59683600 </v>
   <v>       0.49444700       0.49739900       0.33679800 </v>
   <v>       0.49444700       0.49739900       0.83679800 </v>
   <v>       0.49444700       0.99739900       0.33679800 </v>
   <v>       0.49444700       0.99739900       0.83679800 </v>
   <v>       0.99444700       0.49739900       0.33679800 </v>
   <v>       0.99444700       0.49739900       0.83679800 </v>
   <v>       0.99444700       0.99739900       0.33679800 </v>
   <v>       0.99444700       0.99739900       0.83679800 </v>
   <v>       0.49444700       0.33679800       0.49739900 </v>
   <v>       0.49444700       0.33679800       0.99739900 </v>
   <v>       0.49444700       0.83679800       0.49739900 </v>
   <v>       0.49444700       0.83679800       0.99739900 </v>
   <v>       0.99444700       0.33679800       0.49739900 </v>
   <v>       0.99444700       0.33679800       0.99739900 </v>
   <v>       0.99444700       0.83679800       0.49739900 </v>
   <v>       0.99444700       0.83679800       0.99739900 </v>
   <v>       0.17079500       0.00295000       0.00295000 </v>
   <v>       0.17079500       0.00295000       0.50295000 </v>
   <v>       0.17079500       0.50295000       0.00295000 </v>
   <v>       0.17079500       0.50295000       0.50295000 </v>
   <v>       0.67079500       0.00295000       0.00295000 </v>
   <v>       0.67079500       0.00295000       0.50295000 </v>
   <v>       0.67079500       0.50295000       0.00295000 </v>
   <v>       0.67079500       0.50295000       0.50295000 </v>
   <v>       0.00347500       0.00275500       0.16436200 </v>
   <v>       0.00347500       0.00275500       0.66436200 </v>
   <v>       0.00347500       0.50275500       0.16436200 </v>
   <v>       0.00347500       0.50275500       0.66436200 </v>
   <v>       0.50347500       0.00275500       0.16436200 </v>
   <v>       0.50347500       0.00275500       0.66436200 </v>
   <v>       0.50347500       0.50275500       0.16436200 </v>
   <v>       0.50347500       0.50275500       0.66436200 </v>
   <v>       0.00347500       0.16436200       0.00275500 </v>
   <v>       0.00347500       0.16436200       0.50275500 </v>
   <v>       0.00347500       0.66436200       0.00275500 </v>
   <v>       0.00347500       0.66436200       0.50275500 </v>
   <v>       0.50347500       0.16436200       0.00275500 </v>
   <v>       0.50347500       0.16436200       0.50275500 </v>
   <v>       0.50347500       0.66436200       0.00275500 </v>
   <v>       0.50347500       0.66436200       0.50275500 </v>
   <v>       0.24799500       0.24900900       0.24900900 </v>
   <v>       0.24799500       0.24900900       0.74900900 </v>
   <v>       0.24799500       0.74900900       0.24900900 </v>
   <v>       0.24799500       0.74900900       0.74900900 </v>
   <v>       0.74799500       0.24900900       0.24900900 </v>
   <v>       0.74799500       0.24900900       0.74900900 </v>
   <v>       0.74799500       0.74900900       0.24900900 </v>
   <v>       0.74799500       0.74900900       0.74900900 </v>
   <v>       0.33833600       0.49792800       0.49792800 </v>
   <v>       0.33833600       0.49792800       0.99792800 </v>
   <v>       0.33833600       0.99792800       0.49792800 </v>
   <v>       0.33833600       0.99792800       0.99792800 </v>
   <v>       0.83833600       0.49792800       0.49792800 </v>
   <v>       0.83833600       0.49792800       0.99792800 </v>
   <v>       0.83833600       0.99792800       0.49792800 </v>
   <v>       0.83833600       0.99792800       0.99792800 </v>
   <v>       0.30608800       0.30943700       0.30943700 </v>
   <v>       0.30608800       0.30943700       0.80943700 </v>
   <v>       0.30608800       0.80943700       0.30943700 </v>
   <v>       0.30608800       0.80943700       0.80943700 </v>
   <v>       0.80608800       0.30943700       0.30943700 </v>
   <v>       0.80608800       0.30943700       0.80943700 </v>
   <v>       0.80608800       0.80943700       0.30943700 </v>
   <v>       0.80608800       0.80943700       0.80943700 </v>
   <v>       0.19098900       0.18883500       0.18883500 </v>
   <v>       0.19098900       0.18883500       0.68883500 </v>
   <v>       0.19098900       0.68883500       0.18883500 </v>
   <v>       0.19098900       0.68883500       0.68883500 </v>
   <v>       0.69098900       0.18883500       0.18883500 </v>
   <v>       0.69098900       0.18883500       0.68883500 </v>
   <v>       0.69098900       0.68883500       0.18883500 </v>
   <v>       0.69098900       0.68883500       0.68883500 </v>
  </varray>
 </structure>
 <calculation>
  <scstep>
   <time name="dav">    4.17    4.18</time>
   <time name="total">    4.42    4.43</time>
   <energy>
    <i name="alphaZ">   1822.16884311 </i>
    <i name="ewald"> -13416.84650865 </i>
    <i name="hartreedc">   -764.51926575 </i>
    <i name="XCdc">   1144.43912462 </i>
    <i name="pawpsdc">   6780.51620165 </i>
    <i name="pawaedc">  -6712.07122612 </i>
    <i name="eentropy">      0.00000000 </i>
    <i name="bandstr">   2975.89550470 </i>
    <i name="atom">  10363.97701633 </i>
    <i name="e_fr_energy">   2193.55968988 </i>
    <i name="e_wo_entrp">   2193.55968988 </i>
    <i name="e_0_energy">   2193.55968988 </i>
   </energy>
  </scstep>
  <scstep>
   <time name="dav">    4.78    4.78</time>
   <time name="total">    4.79    4.79</time>
   <energy>
    <i name="e_fr_energy">   -691.48368407 </i>
    <i name="e_wo_entrp">   -691.48368407 </i>
    <i name="e_0_energy">   -691.48368407 </i>
   </energy>
  </scstep>
  <scstep>
   <time name="dav">    4.71    4.71</time>
   <time name="total">    4.72    4.72</time>
   <energy>
    <i name="e_fr_energy">   -845.13635625 </i>
    <i name="e_wo_entrp">   -845.13635625 </i>
    <i name="e_0_energy">   -845.13635625 </i>
   </energy>
  </scstep>
  <scstep>
   <time name="dav">    4.67    4.67</time>
   <time name="total">    4.69    4.69</time>
   <energy>
    <i name="e_fr_energy">   -847.60747624 </i>
    <i name="e_wo_entrp">   -847.60747624 </i>
    <i name="e_0_energy">   -847.60747624 </i>
   </energy>
  </scstep>
  <scstep>
   <time name="dav">    4.65    4.65</time>
   <time name="total">    5.71    5.71</time>
   <energy>
    <i name="e_fr_energy">   -847.64603569 </i>
    <i name="e_wo_entrp">   -847.64603569 </i>
    <i name="e_0_energy">   -847.64603569 </i>
   </energy>
  </scstep>
  <scstep>
   <time name="diag">    0.74    0.74</time>
   <time name="diis">    3.92    3.89</time>
   <time name="orth">    0.02    0.02</time>
   <time name="total">    5.93    5.90</time>
   <energy>
    <i name="e_fr_energy">   -744.40464130 </i>
    <i name="e_wo_entrp">   -744.40464130 </i>
    <i name="e_0_energy">   -744.40464130 </i>
   </energy>
  </scstep>
  <scstep>
   <time name="diag">    0.75    0.75</time>
   <time name="diis">    3.93    3.90</time>
   <time name="orth">    0.02    0.02</time>
   <time name="total">    5.94    5.91</time>
   <energy>
    <i name="e_fr_energy">   -722.26477055 </i>
    <i name="e_wo_entrp">   -722.26477055 </i>
    <i name="e_0_energy">   -722.26477055 </i>
   </energy>
  </scstep>
  <scstep>
   <time name="diag">    0.75    0.75</time>
   <time name="diis">    3.93    3.90</time>
   <time name="orth">    0.02    0.02</time>
   <time name="total">    5.95    5.92</time>
   <energy>
    <i name="e_fr_energy">   -721.81003091 </i>
    <i name="e_wo_entrp">   -721.81003091 </i>
    <i name="e_0_energy">   -721.81003091 </i>
   </energy>
  </scstep>
  <scstep>
   <time name="diag">    0.75    0.75</time>
   <time name="diis">    3.94    3.91</time>
   <time name="orth">    0.02    0.02</time>
   <time name="total">    5.96    5.93</time>
   <energy>
    <i name="e_fr_energy">   -721.59388746 </i>
    <i name="e_wo_entrp">   -721.59388746 </i>
    <i name="e_0_energy">   -721.59388746 </i>
   </energy>
  </scstep>
  <scstep>
   <time name="diag">    0.75    0.75</time>
   <time name="diis">    3.93    3.90</time>
   <time name="orth">    0.02    0.02</time>
   <time name="total">    5.95    5.92</time>
   <energy>
    <i name="e_fr_energy">   -721.56428097 </i>
    <i name="e_wo_entrp">   -721.56428097 </i>
    <i name="e_0_energy">   -721.56428097 </i>
   </energy>
  </scstep>
  <scstep>
   <time name="diag">    0.75    0.75</time>
   <time name="diis">    3.93    3.90</time>
   <time name="orth">    0.02    0.02</time>
   <time name="total">    5.95    5.92</time>
   <energy>
    <i name="e_fr_energy">   -721.56638417 </i>
    <i name="e_wo_entrp">   -721.56638417 </i>
    <i name="e_0_energy">   -721.56638417 </i>
   </energy>
  </scstep>
  <scstep>
   <time name="diag">    0.74    0.74</time>
   <time name="diis">    3.93    3.90</time>
   <time name="orth">    0.02    0.02</time>
   <time name="total">    5.94    5.91</time>
   <energy>
    <i name="e_fr_energy">   -721.56723227 </i>
    <i name="e_wo_entrp">   -721.56723227 </i>
    <i name="e_0_energy">   -721.56723227 </i>
   </energy>
  </scstep>
  <scstep>
   <time name="diag">    0.75    0.75</time>
   <time name="diis">    3.95    3.92</time>
   <time name="orth">    0.02    0.02</time>
   <time name="total">    5.96    5.93</time>
   <energy>
    <i name="e_fr_energy">   -721.56703275 </i>
    <i name="e_wo_entrp">   -721.56703275 </i>
    <i name="e_0_energy">   -721.56703275 </i>
   </energy>
  </scstep>
  <scstep>
   <time name="diag">    0.75    0.75</time>
   <time name="diis">    3.95    3.92</time>
   <time name="orth">    0.02    0.02</time>
   <time name="total">    5.97    5.94</time>
   <energy>
    <i name="e_fr_energy">   -721.56708847 </i>
    <i name="e_wo_entrp">   -721.56708847 </i>
    <i name="e_0_energy">   -721.56708847 </i>
   </energy>
  </scstep>
  <scstep>
   <time name="diag">    0.75    0.75</time>
   <time name="diis">    3.97    3.94</time>
   <time name="orth">    0.02    0.02</time>
   <time name="total">    6.01    5.97</time>
   <energy>
    <i name="e_fr_energy">   -721.56710767 </i>
    <i name="e_wo_entrp">   -721.56710767 </i>
    <i name="e_0_energy">   -721.56710767 </i>
   </energy>
  </scstep>
  <scstep>
   <time name="diag">    0.75    0.75</time>
   <time name="diis">    3.86    3.83</time>
   <time name="orth">    0.02    0.02</time>
   <time name="total">    5.88    5.85</time>
   <energy>
    <i name="e_fr_energy">   -721.56710915 </i>
    <i name="e_wo_entrp">   -721.56710915 </i>
    <i name="e_0_energy">   -721.56710915 </i>
   </energy>
  </scstep>
  <scstep>
   <time name="diag">    0.75    0.75</time>
   <time name="diis">    2.93    2.91</time>
   <time name="orth">    0.02    0.02</time>
   <time name="total">    4.95    4.93</time>
   <energy>
    <i name="e_fr_energy">   -721.56711122 </i>
    <i name="e_wo_entrp">   -721.56711122 </i>
    <i name="e_0_energy">   -721.56711122 </i>
   </energy>
  </scstep>
  <scstep>
   <time name="diag">    0.74    0.74</time>
   <time name="diis">    2.66    2.65</time>
   <time name="orth">    0.02    0.02</time>
   <time name="total">    3.65    3.64</time>
   <energy>
    <i name="alphaZ">   1822.16884311 </i>
    <i name="ewald"> -13416.84650865 </i>
    <i name="hartreedc">  -1366.50669947 </i>
    <i name="XCdc">   1187.68327828 </i>
    <i name="pawpsdc">  78430.64862388 </i>
    <i name="pawaedc"> -78388.47486012 </i>
    <i name="eentropy">      0.00000000 </i>
    <i name="bandstr">    645.78319538 </i>
    <i name="atom">  10363.97701633 </i>
    <i name="e_fr_energy">   -721.56711126 </i>
    <i name="e_wo_entrp">   -721.56711126 </i>
    <i name="e_0_energy">   -721.56711126 </i>
   </energy>
  </scstep>
  <structure>
   <crystal>
    <varray name="basis" >
     <v>       8.00325900       0.04347500       3.63053200 </v>
     <v>       2.31870300       7.88240400       3.71256800 </v>
     <v>      -0.04456300       0.06239800       9.01587100 </v>
    </varray>
    <i name="volume">    567.79600283 </i>
    <varray name="rec_basis" >
     <v>       0.12475445      -0.03710940       0.00087346 </v>
     <v>      -0.00029135       0.12736641      -0.00088293 </v>
     <v>      -0.05011644      -0.03750382       0.11092737 </v>
    </varray>
   </crystal>
   <varray name="positions" >
    <v>       0.15792300       0.40375800       0.40375800 </v>
    <v>       0.15792300       0.40375800       0.90375800 </v>
    <v>       0.15792300       0.90375800       0.40375800 </v>
    <v>       0.15792300       0.90375800       0.90375800 </v>
    <v>       0.65792300       0.40375800       0.40375800 </v>
    <v>       0.65792300       0.40375800       0.90375800 </v>
    <v>       0.65792300       0.90375800       0.40375800 </v>
    <v>       0.65792300       0.90375800       0.90375800 </v>
    <v>       0.40163200       0.40233800       0.15722000 </v>
    <v>       0.40163200       0.40233800       0.65722000 </v>
    <v>       0.40163200       0.90233800       0.15722000 </v>
    <v>       0.40163200       0.90233800       0.65722000 </v>
    <v>       0.90163200       0.40233800       0.15722000 </v>
    <v>       0.90163200       0.40233800       0.65722000 </v>
    <v>       0.90163200       0.90233800       0.15722000 </v>
    <v>       0.90163200       0.90233800       0.65722000 </v>
    <v>       0.40163200       0.15722000       0.40233800 </v>
    <v>       0.40163200       0.15722000       0.90233800 </v>
    <v>       0.40163200       0.65722000       0.40233800 </v>
    <v>       0.40163200       0.65722000       0.90233800 </v>
    <v>       0.90163200       0.15722000       0.40233800 </v>
    <v>       0.90163200       0.15722000       0.90233800 </v>
    <v>       0.90163200       0.65722000       0.40233800 </v>
    <v>       0.90163200       0.65722000       0.90233800 </v>
    <v>       0.34136600       0.09666500       0.09666500 </v>
    <v>       0.34136600       0.09666500       0.59666500 </v>
    <v>       0.34136600       0.59666500       0.09666500 </v>
    <v>       0.34136600       0.59666500       0.59666500 </v>
    <v>       0.84136600       0.09666500       0.09666500 </v>
    <v>       0.84136600       0.09666500       0.59666500 </v>
    <v>       0.84136600       0.59666500       0.09666500 </v>
    <v>       0.84136600       0.59666500       0.59666500 </v>
    <v>       0.09870000       0.09683600       0.34371100 </v>
    <v>       0.09870000       0.09683600       0.84371100 </v>
    <v>       0.09870000       0.59683600       0.34371100 </v>
    <v>       0.09870000       0.59683600       0.84371100 </v>
    <v>       0.59870000       0.09683600       0.34371100 </v>
    <v>       0.59870000       0.09683600       0.84371100 </v>
    <v>       0.59870000       0.59683600       0.34371100 </v>
    <v>       0.59870000       0.59683600       0.84371100 </v>
    <v>       0.09870000       0.34371100       0.09683600 </v>
    <v>       0.09870000       0.34371100       0.59683600 </v>
    <v>       0.09870000       0.84371100       0.09683600 </v>
    <v>       0.09870000       0.84371100       0.59683600 </v>
    <v>       0.59870000       0.34371100       0.09683600 </v>
    <v>       0.59870000       0.34371100       0.59683600 </v>
    <v>       0.59870000       0.84371100       0.09683600 </v>
    <v>       0.59870000       0.84371100       0.59683600 </v>
    <v>       0.49444700       0.49739900       0.33679800 </v>
    <v>       0.49444700       0.49739900       0.83679800 </v>
    <v>       0.49444700       0.99739900       0.33679800 </v>
    <v>       0.49444700       0.99739900       0.83679800 </v>
    <v>       0.99444700       0.49739900       0.33679800 </v>
    <v>       0.99444700       0.49739900       0.83679800 </v>
    <v>       0.99444700       0.99739900       0.33679800 </v>
    <v>       0.99444700       0.99739900       0.83679800 </v>
    <v>       0.49444700       0.33679800       0.49739900 </v>
    <v>       0.49444700       0.33679800       0.99739900 </v>
    <v>       0.49444700       0.83679800       0.49739900 </v>
    <v>       0.49444700       0.83679800       0.99739900 </v>
    <v>       0.99444700       0.33679800       0.49739900 </v>
    <v>       0.99444700       0.33679800       0.99739900 </v>
    <v>       0.99444700       0.83679800       0.49739900 </v>
    <v>       0.99444700       0.83679800       0.99739900 </v>
    <v>       0.17079500       0.00295000       0.00295000 </v>
    <v>       0.17079500       0.00295000       0.50295000 </v>
    <v>       0.17079500       0.50295000       0.00295000 </v>
    <v>       0.17079500       0.50295000       0.50295000 </v>
    <v>       0.67079500       0.00295000       0.00295000 </v>
    <v>       0.67079500       0.00295000       0.50295000 </v>
    <v>       0.67079500       0.50295000       0.00295000 </v>
    <v>       0.67079500       0.50295000       0.50295000 </v>
    <v>       0.00347500       0.00275500       0.16436200 </v>
    <v>       0.00347500       0.00275500       0.66436200 </v>
    <v>       0.00347500       0.50275500       0.16436200 </v>
    <v>       0.00347500       0.50275500       0.66436200 </v>
    <v>       0.50347500       0.00275500       0.16436200 </v>
    <v>       0.50347500       0.00275500       0.66436200 </v>
    <v>       0.50347500       0.50275500       0.16436200 </v>
    <v>       0.50347500       0.50275500       0.66436200 </v>
    <v>       0.00347500       0.16436200       0.00275500 </v>
    <v>       0.00347500       0.16436200       0.50275500 </v>
    <v>       0.00347500       0.66436200       0.00275500 </v>
    <v>       0.00347500       0.66436200       0.50275500 </v>
    <v>       0.50347500       0.16436200       0.00275500 </v>
    <v>       0.50347500       0.16436200       0.50275500 </v>
    <v>       0.50347500       0.66436200       0.00275500 </v>
    <v>       0.50347500       0.66436200       0.50275500 </v>
    <v>       0.24799500       0.24900900       0.24900900 </v>
    <v>       0.24799500       0.24900900       0.74900900 </v>
    <v>       0.24799500       0.74900900       0.24900900 </v>
    <v>       0.24799500       0.74900900       0.74900900 </v>
    <v>       0.74799500       0.24900900       0.24900900 </v>
    <v>       0.74799500       0.24900900       0.74900900 </v>
    <v>       0.74799500       0.74900900       0.24900900 </v>
    <v>       0.74799500       0.74900900       0.74900900 </v>
    <v>       0.33833600       0.49792800       0.49792800 </v>
    <v>       0.33833600       0.49792800       0.99792800 </v>
    <v>       0.33833600       0.99792800       0.49792800 </v>
    <v>       0.33833600       0.99792800       0.99792800 </v>
    <v>       0.83833600       0.49792800       0.49792800 </v>
    <v>       0.83833600       0.49792800       0.99792800 </v>
    <v>       0.83833600       0.99792800       0.49792800 </v>
    <v>       0.83833600       0.99792800       0.99792800 </v>
    <v>       0.30608800       0.30943700       0.30943700 </v>
    <v>       0.30608800       0.30943700       0.80943700 </v>
    <v>       0.30608800       0.80943700       0.30943700 </v>
    <v>       0.30608800       0.80943700       0.80943700 </v>
    <v>       0.80608800       0.30943700       0.30943700 </v>
    <v>       0.80608800       0.30943700       0.80943700 </v>
    <v>       0.80608800       0.80943700       0.30943700 </v>
    <v>       0.80608800       0.80943700       0.80943700 </v>
    <v>       0.19098900       0.18883500       0.18883500 </v>
    <v>       0.19098900       0.18883500       0.68883500 </v>
    <v>       0.19098900       0.68883500       0.18883500 </v>
    <v>       0.19098900       0.68883500       0.68883500 </v>
    <v>       0.69098900       0.18883500       0.18883500 </v>
    <v>       0.69098900       0.18883500       0.68883500 </v>
    <v>       0.69098900       0.68883500       0.18883500 </v>
    <v>       0.69098900       0.68883500       0.68883500 </v>
   </varray>
  </structure>
  <varray name="forces" >
   <v>       0.91655679      -0.72771736      -0.66462035 </v>
   <v>       0.91655679      -0.72771736      -0.66462035 </v>
   <v>       0.91655679      -0.72771736      -0.66462035 </v>
   <v>       0.91655679      -0.72771736      -0.66462035 </v>
   <v>       0.91655679      -0.72771736      -0.66462035 </v>
   <v>       0.91655679      -0.72771736      -0.66462035 </v>
   <v>       0.91655679      -0.72771736      -0.66462035 </v>
   <v>       0.91655679      -0.72771736      -0.66462035 </v>
   <v>      -1.62434313      -1.14712572       0.38652592 </v>
   <v>      -1.62434313      -1.14712572       0.38652592 </v>
   <v>      -1.62434313      -1.14712572       0.38652592 </v>
   <v>      -1.62434313      -1.14712572       0.38652592 </v>
   <v>      -1.62434313      -1.14712572       0.38652592 </v>
   <v>      -1.62434313      -1.14712572       0.38652592 </v>
   <v>      -1.62434313      -1.14712572       0.38652592 </v>
   <v>      -1.62434313      -1.14712572       0.38652592 </v>
   <v>      -0.88398506       1.30270625      -1.27487961 </v>
   <v>      -0.88398506       1.30270625      -1.27487961 </v>
   <v>      -0.88398506       1.30270625      -1.27487961 </v>
   <v>      -0.88398506       1.30270625      -1.27487961 </v>
   <v>      -0.88398506       1.30270625      -1.27487961 </v>
   <v>      -0.88398506       1.30270625      -1.27487961 </v>
   <v>      -0.88398506       1.30270625      -1.27487961 </v>
   <v>      -0.88398506       1.30270625      -1.27487961 </v>
   <v>      -0.77915736       0.77719749       0.79880960 </v>
   <v>      -0.77915736       0.77719749       0.79880960 </v>
   <v>      -0.77915736       0.77719749       0.79880960 </v>
   <v>      -0.77915736       0.77719749       0.79880960 </v>
   <v>      -0.77915736       0.77719749       0.79880960 </v>
   <v>      -0.77915736       0.77719749       0.79880960 </v>
   <v>      -0.77915736       0.77719749       0.79880960 </v>
   <v>      -0.77915736       0.77719749       0.79880960 </v>
   <v>       1.57799034       1.08719287       0.02917697 </v>
   <v>       1.57799034       1.08719287       0.02917697 </v>
   <v>       1.57799034       1.08719287       0.02917697 </v>
   <v>       1.57799034       1.08719287       0.02917697 </v>
   <v>       1.57799034       1.08719287       0.02917697 </v>
   <v>       1.57799034       1.08719287       0.02917697 </v>
   <v>       1.57799034       1.08719287       0.02917697 </v>
   <v>       1.57799034       1.08719287       0.02917697 </v>
   <v>       0.97628635      -0.90383513       1.37943485 </v>
   <v>       0.97628635      -0.90383513       1.37943485 </v>
   <v>       0.97628635      -0.90383513       1.37943485 </v>
   <v>       0.97628635      -0.90383513       1.37943485 </v>
   <v>       0.97628635      -0.90383513       1.37943485 </v>
   <v>       0.97628635      -0.90383513       1.37943485 </v>
   <v>       0.97628635      -0.90383513       1.37943485 </v>
   <v>       0.97628635      -0.90383513       1.37943485 </v>
   <v>      -0.73438545      -0.28335045      -2.42951294 </v>
   <v>      -0.73438545      -0.28335045      -2.42951294 </v>
   <v>      -0.73438545      -0.28335045      -2.42951294 </v>
   <v>      -0.73438545      -0.28335045      -2.42951294 </v>
   <v>      -0.73438545      -0.28335045      -2.42951294 </v>
   <v>      -0.73438545      -0.28335045      -2.42951294 </v>
   <v>      -0.73438545      -0.28335045      -2.42951294 </v>
   <v>      -0.73438545      -0.28335045      -2.42951294 </v>
   <v>      -1.17947750      -1.75615230      -1.43070112 </v>
   <v>      -1.17947750      -1.75615230      -1.43070112 </v>
   <v>      -1.17947750      -1.75615230      -1.43070112 </v>
   <v>      -1.17947750      -1.75615230      -1.43070112 </v>
   <v>      -1.17947750      -1.75615230      -1.43070112 </v>
   <v>      -1.17947750      -1.75615230      -1.43070112 </v>
   <v>      -1.17947750      -1.75615230      -1.43070112 </v>
   <v>      -1.17947750      -1.75615230      -1.43070112 </v>
   <v>       0.84416434       0.55263662       1.19107002 </v>
   <v>       0.84416434       0.55263662       1.19107002 </v>
   <v>       0.84416434       0.55263662       1.19107002 </v>
   <v>       0.84416434       0.55263662       1.19107002 </v>
   <v>       0.84416434       0.55263662       1.19107002 </v>
   <v>       0.84416434       0.55263662       1.19107002 </v>
   <v>       0.84416434       0.55263662       1.19107002 </v>
   <v>       0.84416434       0.55263662       1.19107002 </v>
   <v>       1.05563629       0.38147498       2.42575951 </v>
   <v>       1.05563629       0.38147498       2.42575951 </v>
   <v>       1.05563629       0.38147498       2.42575951 </v>
   <v>       1.05563629       0.38147498       2.42575951 </v>
   <v>       1.05563629       0.38147498       2.42575951 </v>
   <v>       1.05563629       0.38147498       2.42575951 </v>
   <v>       1.05563629       0.38147498       2.42575951 </v>
   <v>       1.05563629       0.38147498       2.42575951 </v>
   <v>       1.42367680       1.59931461       1.59985573 </v>
   <v>       1.42367680       1.59931461       1.59985573 </v>
   <v>       1.42367680       1.59931461       1.59985573 </v>
   <v>       1.42367680       1.59931461       1.59985573 </v>
   <v>       1.42367680       1.59931461       1.59985573 </v>
   <v>       1.42367680       1.59931461       1.59985573 </v>
   <v>       1.42367680       1.59931461       1.59985573 </v>
   <v>       1.42367680       1.59931461       1.59985573 </v>
   <v>       0.14714805       0.39763853       0.65191151 </v>
   <v>       0.14714805       0.39763853       0.65191151 </v>
   <v>       0.14714805       0.39763853       0.65191151 </v>
   <v>       0.14714805       0.39763853       0.65191151 </v>
   <v>       0.14714805       0.39763853       0.65191151 </v>
   <v>       0.14714805       0.39763853       0.65191151 </v>
   <v>       0.14714805       0.39763853       0.65191151 </v>
   <v>       0.14714805       0.39763853       0.65191151 </v>
   <v>      -1.11028247      -0.54983069      -1.30552053 </v>
   <v>      -1.11028247      -0.54983069      -1.30552053 </v>
   <v>      -1.11028247      -0.54983069      -1.30552053 </v>
   <v>      -1.11028247      -0.54983069      -1.30552053 </v>
   <v>      -1.11028247      -0.54983069      -1.30552053 </v>
   <v>      -1.11028247      -0.54983069      -1.30552053 </v>
   <v>      -1.11028247      -0.54983069      -1.30552053 </v>
   <v>      -1.11028247      -0.54983069      -1.30552053 </v>
   <v>       3.33831399       2.48295938       5.14888072 </v>
   <v>       3.33831399       2.48295938       5.14888072 </v>
   <v>       3.33831399       2.48295938       5.14888072 </v>
   <v>       3.33831399       2.48295938       5.14888072 </v>
   <v>       3.33831399       2.48295938       5.14888072 </v>
   <v>       3.33831399       2.48295938       5.14888072 </v>
   <v>       3.33831399       2.48295938       5.14888072 </v>
   <v>       3.33831399       2.48295938       5.14888072 </v>
   <v>      -3.96814199      -3.21310906      -6.50619026 </v>
   <v>      -3.96814199      -3.21310906      -6.50619026 </v>
   <v>      -3.96814199      -3.21310906      -6.50619026 </v>
   <v>      -3.96814199      -3.21310906      -6.50619026 </v>
   <v>      -3.96814199      -3.21310906      -6.50619026 </v>
   <v>      -3.96814199      -3.21310906      -6.50619026 </v>
   <v>      -3.96814199      -3.21310906      -6.50619026 </v>
   <v>      -3.96814199      -3.21310906      -6.50619026 </v>
  </varray>
  <varray name="stress" >
   <v>    2222.42253497      20.17368698      53.21960017 </v>
   <v>      20.17368693    2213.99666691      74.23252391 </v>
   <v>      53.21960010      74.23252393    2302.92548457 </v>
  </varray>
  <energy>
   <i name="e_fr_energy">   -721.56711126 </i>
   <i name="e_wo_entrp">   -721.56711126 </i>
   <i name="e_0_energy">   -721.56711126 </i>
  </energy>
  <time name="totalsc">  114.72  114.46</time>
 </calculation>
 <calculation>
  <scstep>
   <time name="dav">    4.57    4.57</time>
   <time name="total">    5.80    5.80</time>
   <energy>
    <i name="alphaZ">   1822.16884311 </i>
    <i name="ewald"> -13921.13790842 </i>
    <i name="hartreedc">  -1037.23015184 </i>
    <i name="XCdc">   1172.95645874 </i>
    <i name="pawpsdc">  78430.55876593 </i>
    <i name="pawaedc"> -78388.38489237 </i>
    <i name="eentropy">      0.00000000 </i>
    <i name="bandstr">    891.88623295 </i>
    <i name="atom">  10363.97701633 </i>
    <i name="e_fr_energy">   -665.20563555 </i>
    <i name="e_wo_entrp">   -665.20563555 </i>
    <i name="e_0_energy">   -665.20563555 </i>
   </energy>
  </scstep>
  <scstep>
   <time name="diag">    0.75    0.75</time>
   <time name="diis">    3.92    3.89</time>
   <time name="orth">    0.02    0.02</time>
   <time name="total">    5.94    5.91</time>
   <energy>
    <i name="e_fr_energy">   -666.56871104 </i>
    <i name="e_wo_entrp">   -666.56871104 </i>
    <i name="e_0_energy">   -666.56871104 </i>
   </energy>
  </scstep>
  <scstep>
   <time name="diag">    0.75    0.75</time>
   <time name="diis">    3.92    3.89</time>
   <time name="orth">    0.02    0.02</time>
   <time name="total">    5.95    5.92</time>
   <energy>
    <i name="e_fr_energy">   -663.13325188 </i>
    <i name="e_wo_entrp">   -663.13325188 </i>
    <i name="e_0_energy">   -663.13325188 </i>
   </energy>
  </scstep>
  <scstep>
   <time name="diag">    0.75    0.75</time>
   <time name="diis">    3.93    3.89</time>
   <time name="orth">    0.02    0.02</time>
   <time name="total">    5.95    5.91</time>
   <energy>
    <i name="e_fr_energy">   -661.85015429 </i>
    <i name="e_wo_entrp">   -661.85015429 </i>
    <i name="e_0_energy">   -661.85015429 </i>
   </energy>
  </scstep>
  <scstep>
   <time name="diag">    0.75    0.75</time>
   <time name="diis">    3.97    3.94</time>
   <time name="orth">    0.02    0.02</time>
   <time name="total">    5.97    5.94</time>
   <energy>
    <i name="e_fr_energy">   -661.81936505 </i>
    <i name="e_wo_entrp">   -661.81936505 </i>
    <i name="e_0_energy">   -661.81936505 </i>
   </energy>
  </scstep>
  <scstep>
   <time name="diag">    0.75    0.75</time>
   <time name="diis">    3.98    3.95</time>
   <time name="orth">    0.02    0.02</time>
   <time name="total">    5.99    5.96</time>
   <energy>
    <i name="e_fr_energy">   -661.81838120 </i>
    <i name="e_wo_entrp">   -661.81838120 </i>
    <i name="e_0_energy">   -661.81838120 </i>
   </energy>
  </scstep>
  <scstep>
   <time name="diag">    0.75    0.75</time>
   <time name="diis">    3.98    3.94</time>
   <time name="orth">    0.02    0.02</time>
   <time name="total">    5.99    5.95</time>
   <energy>
    <i name="e_fr_energy">   -661.81954396 </i>
    <i name="e_wo_entrp">   -661.81954396 </i>
    <i name="e_0_energy">   -661.81954396 </i>
   </energy>
  </scstep>
  <scstep>
   <time name="diag">    0.75    0.75</time>
   <time name="diis">    4.01    3.98</time>
   <time name="orth">    0.02    0.02</time>
   <time name="total">    6.03    6.00</time>
   <energy>
    <i name="e_fr_energy">   -661.82000831 </i>
    <i name="e_wo_entrp">   -661.82000831 </i>
    <i name="e_0_energy">   -661.82000831 </i>
   </energy>
  </scstep>
  <scstep>
   <time name="diag">    0.75    0.75</time>
   <time name="diis">    3.94    3.91</time>
   <time name="orth">    0.02    0.02</time>
   <time name="total">    5.97    5.94</time>
   <energy>
    <i name="e_fr_energy">   -661.82033122 </i>
    <i name="e_wo_entrp">   -661.82033122 </i>
    <i name="e_0_energy">   -661.82033122 </i>
   </energy>
  </scstep>
  <scstep>
   <time name="diag">    0.74    0.74</time>
   <time name="diis">    3.95    3.92</time>
   <time name="orth">    0.02    0.02</time>
   <time name="total">    5.97    5.94</time>
   <energy>
    <i name="e_fr_energy">   -661.82010600 </i>
    <i name="e_wo_entrp">   -661.82010600 </i>
    <i name="e_0_energy">   -661.82010600 </i>
   </energy>
  </scstep>
  <scstep>
   <time name="diag">    0.75    0.75</time>
   <time name="diis">    3.96    3.93</time>
   <time name="orth">    0.02    0.02</time>
   <time name="total">    5.98    5.95</time>
   <energy>
    <i name="e_fr_energy">   -661.81999875 </i>
    <i name="e_wo_entrp">   -661.81999875 </i>
    <i name="e_0_energy">   -661.81999875 </i>
   </energy>
  </scstep>
  <scstep>
   <time name="diag">    0.75    0.75</time>
   <time name="diis">    3.93    3.90</time>
   <time name="orth">    0.02    0.02</time>
   <time name="total">    5.96    5.93</time>
   <energy>
    <i name="e_fr_energy">   -661.82010139 </i>
    <i name="e_wo_entrp">   -661.82010139 </i>
    <i name="e_0_energy">   -661.82010139 </i>
   </energy>
  </scstep>
  <scstep>
   <time name="diag">    0.75    0.75</time>
   <time name="diis">    3.29    3.27</time>
   <time name="orth">    0.02    0.02</time>
   <time name="total">    5.31    5.29</time>
   <energy>
    <i name="e_fr_energy">   -661.82008936 </i>
    <i name="e_wo_entrp">   -661.82008936 </i>
    <i name="e_0_energy">   -661.82008936 </i>
   </energy>
  </scstep>
  <scstep>
   <time name="diag">    0.75    0.75</time>
   <time name="diis">    3.79    3.76</time>
   <time name="orth">    0.02    0.02</time>
   <time name="total">    5.81    5.78</time>
   <energy>
    <i name="e_fr_energy">   -661.82002594 </i>
    <i name="e_wo_entrp">   -661.82002594 </i>
    <i name="e_0_energy">   -661.82002594 </i>
   </energy>
  </scstep>
  <scstep>
   <time name="diag">    0.75    0.75</time>
   <time name="diis">    2.70    2.68</time>
   <time name="orth">    0.02    0.02</time>
   <time name="total">    4.72    4.71</time>
   <energy>
    <i name="e_fr_energy">   -661.82001879 </i>
    <i name="e_wo_entrp">   -661.82001879 </i>
    <i name="e_0_energy">   -661.82001879 </i>
   </energy>
  </scstep>
  <scstep>
   <time name="diag">    0.75    0.75</time>
   <time name="diis">    2.44    2.43</time>
   <time name="orth">    0.02    0.02</time>
   <time name="total">    3.44    3.43</time>
   <energy>
    <i name="alphaZ">   1822.16884311 </i>
    <i name="ewald"> -13921.13790842 </i>
    <i name="hartreedc">  -1022.52395545 </i>
    <i name="XCdc">   1173.04445895 </i>
    <i name="pawpsdc">  68738.31418209 </i>
    <i name="pawaedc"> -68693.70834662 </i>
    <i name="eentropy">      0.00000000 </i>
    <i name="bandstr">    878.04569033 </i>
    <i name="atom">  10363.97701633 </i>
    <i name="e_fr_energy">   -661.82001968 </i>
    <i name="e_wo_entrp">   -661.82001968 </i>
    <i name="e_0_energy">   -661.82001968 </i>
   </energy>
  </scstep>
  <structure>
   <crystal>
    <varray name="basis" >
     <v>       8.00411799       0.10468173       3.72116774 </v>
     <v>       2.36174905       7.89248186       3.84367617 </v>
     <v>       0.02413210       0.15734608       9.08942179 </v>
    </varray>
    <i name="volume">    567.79600283 </i>
    <varray name="rec_basis" >
     <v>       0.12527969      -0.03764411       0.00031904 </v>
     <v>      -0.00064457       0.12797379      -0.00221363 </v>
     <v>      -0.05101636      -0.03870540       0.11082347 </v>
    </varray>
   </crystal>
   <varray name="positions" >
    <v>       0.16471408       0.39930197       0.39930197 </v>
    <v>       0.16471408       0.39930197       0.89930197 </v>
    <v>       0.16471408       0.89930197       0.39930197 </v>
    <v>       0.16471408       0.89930197       0.89930197 </v>
    <v>       0.66471408       0.39930197       0.39930197 </v>
    <v>       0.66471408       0.39930197       0.89930197 </v>
    <v>       0.66471408       0.89930197       0.39930197 </v>
    <v>       0.66471408       0.89930197       0.89930197 </v>
    <v>       0.39392585       0.39529586       0.16529120 </v>
    <v>       0.39392585       0.39529586       0.66529120 </v>
    <v>       0.39392585       0.89529586       0.16529120 </v>
    <v>       0.39392585       0.89529586       0.66529120 </v>
    <v>       0.89392585       0.39529586       0.16529120 </v>
    <v>       0.89392585       0.39529586       0.66529120 </v>
    <v>       0.89392585       0.89529586       0.16529120 </v>
    <v>       0.89392585       0.89529586       0.66529120 </v>
    <v>       0.39392585       0.16529120       0.39529586 </v>
    <v>       0.39392585       0.16529120       0.89529586 </v>
    <v>       0.39392585       0.66529120       0.39529586 </v>
    <v>       0.39392585       0.66529120       0.89529586 </v>
    <v>       0.89392585       0.16529120       0.39529586 </v>
    <v>       0.89392585       0.16529120       0.89529586 </v>
    <v>       0.89392585       0.66529120       0.39529586 </v>
    <v>       0.89392585       0.66529120       0.89529586 </v>
    <v>       0.33531893       0.10141741       0.10141741 </v>
    <v>       0.33531893       0.10141741       0.60141741 </v>
    <v>       0.33531893       0.60141741       0.10141741 </v>
    <v>       0.33531893       0.60141741       0.60141741 </v>
    <v>       0.83531893       0.10141741       0.10141741 </v>
    <v>       0.83531893       0.10141741       0.60141741 </v>
    <v>       0.83531893       0.60141741       0.10141741 </v>
    <v>       0.83531893       0.60141741       0.60141741 </v>
    <v>       0.10625199       0.10349283       0.33808491 </v>
    <v>       0.10625199       0.10349283       0.83808491 </v>
    <v>       0.10625199       0.60349283       0.33808491 </v>
    <v>       0.10625199       0.60349283       0.83808491 </v>
    <v>       0.60625199       0.10349283       0.33808491 </v>
    <v>       0.60625199       0.10349283       0.83808491 </v>
    <v>       0.60625199       0.60349283       0.33808491 </v>
    <v>       0.60625199       0.60349283       0.83808491 </v>
    <v>       0.10625199       0.33808491       0.10349283 </v>
    <v>       0.10625199       0.33808491       0.60349283 </v>
    <v>       0.10625199       0.83808491       0.10349283 </v>
    <v>       0.10625199       0.83808491       0.60349283 </v>
    <v>       0.60625199       0.33808491       0.10349283 </v>
    <v>       0.60625199       0.33808491       0.60349283 </v>
    <v>       0.60625199       0.83808491       0.10349283 </v>
    <v>       0.60625199       0.83808491       0.60349283 </v>
    <v>       0.49043201       0.49577176       0.32608485 </v>
    <v>       0.49043201       0.49577176       0.82608485 </v>
    <v>       0.49043201       0.99577176       0.32608485 </v>
    <v>       0.49043201       0.99577176       0.82608485 </v>
    <v>       0.99043201       0.49577176       0.32608485 </v>
    <v>       0.99043201       0.49577176       0.82608485 </v>
    <v>       0.99043201       0.99577176       0.32608485 </v>
    <v>       0.99043201       0.99577176       0.82608485 </v>
    <v>       0.49043201       0.32608485       0.49577176 </v>
    <v>       0.49043201       0.32608485       0.99577176 </v>
    <v>       0.49043201       0.82608485       0.49577176 </v>
    <v>       0.49043201       0.82608485       0.99577176 </v>
    <v>       0.99043201       0.32608485       0.49577176 </v>
    <v>       0.99043201       0.32608485       0.99577176 </v>
    <v>       0.99043201       0.82608485       0.49577176 </v>
    <v>       0.99043201       0.82608485       0.99577176 </v>
    <v>       0.17493642       0.00628307       0.00628307 </v>
    <v>       0.17493642       0.00628307       0.50628307 </v>
    <v>       0.17493642       0.50628307       0.00628307 </v>
    <v>       0.17493642       0.50628307       0.50628307 </v>
    <v>       0.67493642       0.00628307       0.00628307 </v>
    <v>       0.67493642       0.00628307       0.50628307 </v>
    <v>       0.67493642       0.50628307       0.00628307 </v>
    <v>       0.67493642       0.50628307       0.50628307 </v>
    <v>       0.00924761       0.00498081       0.17410082 </v>
    <v>       0.00924761       0.00498081       0.67410082 </v>
    <v>       0.00924761       0.50498081       0.17410082 </v>
    <v>       0.00924761       0.50498081       0.67410082 </v>
    <v>       0.50924761       0.00498081       0.17410082 </v>
    <v>       0.50924761       0.00498081       0.67410082 </v>
    <v>       0.50924761       0.50498081       0.17410082 </v>
    <v>       0.50924761       0.50498081       0.67410082 </v>
    <v>       0.00924761       0.17410082       0.00498081 </v>
    <v>       0.00924761       0.17410082       0.50498081 </v>
    <v>       0.00924761       0.67410082       0.00498081 </v>
    <v>       0.00924761       0.67410082       0.50498081 </v>
    <v>       0.50924761       0.17410082       0.00498081 </v>
    <v>       0.50924761       0.17410082       0.50498081 </v>
    <v>       0.50924761       0.67410082       0.00498081 </v>
    <v>       0.50924761       0.67410082       0.50498081 </v>
    <v>       0.24819620       0.25142245       0.25142245 </v>
    <v>       0.24819620       0.25142245       0.75142245 </v>
    <v>       0.24819620       0.75142245       0.25142245 </v>
    <v>       0.24819620       0.75142245       0.75142245 </v>
    <v>       0.74819620       0.25142245       0.25142245 </v>
    <v>       0.74819620       0.25142245       0.75142245 </v>
    <v>       0.74819620       0.75142245       0.25142245 </v>
    <v>       0.74819620       0.75142245       0.75142245 </v>
    <v>       0.33258311       0.49462078       0.49462078 </v>
    <v>       0.33258311       0.49462078       0.99462078 </v>
    <v>       0.33258311       0.99462078       0.49462078 </v>
    <v>       0.33258311       0.99462078       0.99462078 </v>
    <v>       0.83258311       0.49462078       0.49462078 </v>
    <v>       0.83258311       0.49462078       0.99462078 </v>
    <v>       0.83258311       0.99462078       0.49462078 </v>
    <v>       0.83258311       0.99462078       0.99462078 </v>
    <v>       0.32195143       0.32442729       0.32442729 </v>
    <v>       0.32195143       0.32442729       0.82442729 </v>
    <v>       0.32195143       0.82442729       0.32442729 </v>
    <v>       0.32195143       0.82442729       0.82442729 </v>
    <v>       0.82195143       0.32442729       0.32442729 </v>
    <v>       0.82195143       0.32442729       0.82442729 </v>
    <v>       0.82195143       0.82442729       0.32442729 </v>
    <v>       0.82195143       0.82442729       0.82442729 </v>
    <v>       0.17258492       0.16942498       0.16942498 </v>
    <v>       0.17258492       0.16942498       0.66942498 </v>
    <v>       0.17258492       0.66942498       0.16942498 </v>
    <v>       0.17258492       0.66942498       0.66942498 </v>
    <v>       0.67258492       0.16942498       0.16942498 </v>
    <v>       0.67258492       0.16942498       0.66942498 </v>
    <v>       0.67258492       0.66942498       0.16942498 </v>
    <v>       0.67258492       0.66942498       0.66942498 </v>
   </varray>
  </structure>
  <varray name="forces" >
   <v>      -7.65751850       4.98023591       3.93126477 </v>
   <v>      -7.65751850       4.98023591       3.93126477 </v>
   <v>      -7.65751850       4.98023591       3.93126477 </v>
   <v>      -7.65751850       4.98023591       3.93126477 </v>
   <v>      -7.65751850       4.98023591       3.93126477 </v>
   <v>      -7.65751850       4.98023591       3.93126477 </v>
   <v>      -7.65751850       4.98023591       3.93126477 </v>
   <v>      -7.65751850       4.98023591       3.93126477 </v>
   <v>       6.91255580       4.53412169      -5.98099880 </v>
   <v>       6.91255580       4.53412169      -5.98099880 </v>
   <v>       6.91255580       4.53412169      -5.98099880 </v>
   <v>       6.91255580       4.53412169      -5.98099880 </v>
   <v>       6.91255580       4.53412169      -5.98099880 </v>
   <v>       6.91255580       4.53412169      -5.98099880 </v>
   <v>       6.91255580       4.53412169      -5.98099880 </v>
   <v>       6.91255580       4.53412169      -5.98099880 </v>
   <v>       2.75155950      -9.23454617       3.35651396 </v>
   <v>       2.75155950      -9.23454617       3.35651396 </v>
   <v>       2.75155950      -9.23454617       3.35651396 </v>
   <v>       2.75155950      -9.23454617       3.35651396 </v>
   <v>       2.75155950      -9.23454617       3.35651396 </v>
   <v>       2.75155950      -9.23454617       3.35651396 </v>
   <v>       2.75155950      -9.23454617       3.35651396 </v>
   <v>       2.75155950      -9.23454617       3.35651396 </v>
   <v>       7.64855793      -4.09774791      -2.63398253 </v>
   <v>       7.64855793      -4.09774791      -2.63398253 </v>
   <v>       7.64855793      -4.09774791      -2.63398253 </v>
   <v>       7.64855793      -4.09774791      -2.63398253 </v>
   <v>       7.64855793      -4.09774791      -2.63398253 </v>
   <v>       7.64855793      -4.09774791      -2.63398253 </v>
   <v>       7.64855793      -4.09774791      -2.63398253 </v>
   <v>       7.64855793      -4.09774791      -2.63398253 </v>
   <v>      -4.40231030      -2.62471771       3.52987387 </v>
   <v>      -4.40231030      -2.62471771       3.52987387 </v>
   <v>      -4.40231030      -2.62471771       3.52987387 </v>
   <v>      -4.40231030      -2.62471771       3.52987387 </v>
   <v>      -4.40231030      -2.62471771       3.52987387 </v>
   <v>      -4.40231030      -2.62471771       3.52987387 </v>
   <v>      -4.40231030      -2.62471771       3.52987387 </v>
   <v>      -4.40231030      -2.62471771       3.52987387 </v>
   <v>      -1.92853936       5.56094938      -2.02140907 </v>
   <v>      -1.92853936       5.56094938      -2.02140907 </v>
   <v>      -1.92853936       5.56094938      -2.02140907 </v>
   <v>      -1.92853936       5.56094938      -2.02140907 </v>
   <v>      -1.92853936       5.56094938      -2.02140907 </v>
   <v>      -1.92853936       5.56094938      -2.02140907 </v>
   <v>      -1.92853936       5.56094938      -2.02140907 </v>
   <v>      -1.92853936       5.56094938      -2.02140907 </v>
   <v>      -1.02349398       0.14870483      14.83888481 </v>
   <v>      -1.02349398       0.14870483      14.83888481 </v>
   <v>      -1.02349398       0.14870483      14.83888481 </v>
   <v>      -1.02349398       0.14870483      14.83888481 </v>
   <v>      -1.02349398       0.14870483      14.83888481 </v>
   <v>      -1.02349398       0.14870483      14.83888481 </v>
   <v>      -1.02349398       0.14870483      14.83888481 </v>
   <v>      -1.02349398       0.14870483      14.83888481 </v>
   <v>       2.96007122      13.33025610       5.89953756 </v>
   <v>       2.96007122      13.33025610       5.89953756 </v>
   <v>       2.96007122      13.33025610       5.89953756 </v>
   <v>       2.96007122      13.33025610       5.89953756 </v>
   <v>       2.96007122      13.33025610       5.89953756 </v>
   <v>       2.96007122      13.33025610       5.89953756 </v>
   <v>       2.96007122      13.33025610       5.89953756 </v>
   <v>       2.96007122      13.33025610       5.89953756 </v>
   <v>      -6.65859455      -0.17358934      -3.22318117 </v>
   <v>      -6.65859455      -0.17358934      -3.22318117 </v>
   <v>      -6.65859455      -0.17358934      -3.22318117 </v>
   <v>      -6.65859455      -0.17358934      -3.22318117 </v>
   <v>      -6.65859455      -0.17358934      -3.22318117 </v>
   <v>      -6.65859455      -0.17358934      -3.22318117 </v>
   <v>      -6.65859455      -0.17358934      -3.22318117 </v>
   <v>      -6.65859455      -0.17358934      -3.22318117 </v>
   <v>       0.36799240      -0.21179002     -14.19215214 </v>
   <v>       0.36799240      -0.21179002     -14.19215214 </v>
   <v>       0.36799240      -0.21179002     -14.19215214 </v>
   <v>       0.36799240      -0.21179002     -14.19215214 </v>
   <v>       0.36799240      -0.21179002     -14.19215214 </v>
   <v>       0.36799240      -0.21179002     -14.19215214 </v>
   <v>       0.36799240      -0.21179002     -14.19215214 </v>
   <v>       0.36799240      -0.21179002     -14.19215214 </v>
   <v>      -3.34291651     -12.49112617      -5.86466112 </v>
   <v>      -3.34291651     -12.49112617      -5.86466112 </v>
   <v>      -3.34291651     -12.49112617      -5.86466112 </v>
   <v>      -3.34291651     -12.49112617      -5.86466112 </v>
   <v>      -3.34291651     -12.49112617      -5.86466112 </v>
   <v>      -3.34291651     -12.49112617      -5.86466112 </v>
   <v>      -3.34291651     -12.49112617      -5.86466112 </v>
   <v>      -3.34291651     -12.49112617      -5.86466112 </v>
   <v>      -1.06790639      -0.71822236      -1.53493919 </v>
   <v>      -1.06790639      -0.71822236      -1.53493919 </v>
   <v>      -1.06790639      -0.71822236      -1.53493919 </v>
   <v>      -1.06790639      -0.71822236      -1.53493919 </v>
   <v>      -1.06790639      -0.71822236      -1.53493919 </v>
   <v>      -1.06790639      -0.71822236      -1.53493919 </v>
   <v>      -1.06790639      -0.71822236      -1.53493919 </v>
   <v>      -1.06790639      -0.71822236      -1.53493919 </v>
   <v>       8.26333439      -0.39919643       3.09368519 </v>
   <v>       8.26333439      -0.39919643       3.09368519 </v>
   <v>       8.26333439      -0.39919643       3.09368519 </v>
   <v>       8.26333439      -0.39919643       3.09368519 </v>
   <v>       8.26333439      -0.39919643       3.09368519 </v>
   <v>       8.26333439      -0.39919643       3.09368519 </v>
   <v>       8.26333439      -0.39919643       3.09368519 </v>
   <v>       8.26333439      -0.39919643       3.09368519 </v>
   <v>      -3.52151320      -1.80029783      -4.22389731 </v>
   <v>      -3.52151320      -1.80029783      -4.22389731 </v>
   <v>      -3.52151320      -1.80029783      -4.22389731 </v>
   <v>      -3.52151320      -1.80029783      -4.22389731 </v>
   <v>      -3.52151320      -1.80029783      -4.22389731 </v>
   <v>      -3.52151320      -1.80029783      -4.22389731 </v>
   <v>      -3.52151320      -1.80029783      -4.22389731 </v>
   <v>      -3.52151320      -1.80029783      -4.22389731 </v>
   <v>       0.69872157       3.19696602       5.02546117 </v>
   <v>       0.69872157       3.19696602       5.02546117 </v>
   <v>       0.69872157       3.19696602       5.02546117 </v>
   <v>       0.69872157       3.19696602       5.02546117 </v>
   <v>       0.69872157       3.19696602       5.02546117 </v>
   <v>       0.69872157       3.19696602       5.02546117 </v>
   <v>       0.69872157       3.19696602       5.02546117 </v>
   <v>       0.69872157       3.19696602       5.02546117 </v>
  </varray>
  <varray name="stress" >
   <v>    2168.29868388    -287.21794629    -617.61430251 </v>
   <v>    -287.21794636    2473.39307363    -320.37835242 </v>
   <v>    -617.61430261    -320.37835239    1856.22574112 </v>
  </varray>
  <energy>
   <i name="e_fr_energy">   -661.82001968 </i>
   <i name="e_wo_entrp">   -661.82001968 </i>
   <i name="e_0_energy">   -661.82001968 </i>
  </energy>
  <time name="totalsc">  104.62  104.20</time>
 </calculation>
 <calculation>
  <scstep>
   <time name="dav">    4.22    4.22</time>
   <time name="total">    5.46    5.46</time>
   <energy>
    <i name="alphaZ">   1822.16884311 </i>
    <i name="ewald"> -13568.81955683 </i>
    <i name="hartreedc">  -1182.34133593 </i>
    <i name="XCdc">   1180.57984076 </i>
    <i name="pawpsdc">  68738.37044520 </i>
[...]
   <time name="orth">    0.02    0.02</time>
   <time name="total">    6.48    6.44</time>
   <energy>
    <i name="e_fr_energy">   -224.23660621 </i>
    <i name="e_wo_entrp">   -224.23660621 </i>
    <i name="e_0_energy">   -224.23660621 </i>
   </energy>
  </scstep>
  <scstep>
   <time name="diag">    0.75    0.75</time>
   <time name="diis">    4.28    4.24</time>
   <time name="orth">    0.02    0.02</time>
   <time name="total">    6.33    6.29</time>
   <energy>
    <i name="e_fr_energy">   -224.23171679 </i>
    <i name="e_wo_entrp">   -224.23171679 </i>
    <i name="e_0_energy">   -224.23171679 </i>
   </energy>
  </scstep>
  <scstep>
   <time name="diag">    0.75    0.75</time>
   <time name="diis">    3.98    3.95</time>
   <time name="orth">    0.02    0.02</time>
   <time name="total">    6.03    6.00</time>
   <energy>
    <i name="e_fr_energy">   -224.23295475 </i>
    <i name="e_wo_entrp">   -224.23295475 </i>
    <i name="e_0_energy">   -224.23295475 </i>
   </energy>
  </scstep>
  <scstep>
   <time name="diag">    0.76    0.76</time>
   <time name="diis">    2.92    2.90</time>
   <time name="orth">    0.02    0.02</time>
   <time name="total">    4.98    4.96</time>
   <energy>
    <i name="e_fr_energy">   -224.23353902 </i>
    <i name="e_wo_entrp">   -224.23353902 </i>
    <i name="e_0_energy">   -224.23353902 </i>
   </energy>
  </scstep>
  <scstep>
   <time name="diag">    0.75    0.75</time>
   <time name="diis">    2.62    2.61</time>
   <time name="orth">    0.02    0.02</time>
   <time name="total">    4.69    4.68</time>
   <energy>
    <i name="e_fr_energy">   -224.23448065 </i>
    <i name="e_wo_entrp">   -224.23448065 </i>
    <i name="e_0_energy">   -224.23448065 </i>
   </energy>
  </scstep>
  <scstep>
   <time name="diag">    0.75    0.75</time>
   <time name="diis">    2.42    2.41</time>
   <time name="orth">    0.02    0.02</time>
   <time name="total">    4.48    4.48</time>
   <energy>
    <i name="e_fr_energy">   -224.23457044 </i>
    <i name="e_wo_entrp">   -224.23457044 </i>
    <i name="e_0_energy">   -224.23457044 </i>
   </energy>
  </scstep>
  <scstep>
   <time name="diag">    0.75    0.75</time>
   <time name="diis">    2.13    2.13</time>
   <time name="orth">    0.02    0.02</time>
   <time name="total">    4.19    4.18</time>
   <energy>
    <i name="e_fr_energy">   -224.23481700 </i>
    <i name="e_wo_entrp">   -224.23481700 </i>
    <i name="e_0_energy">   -224.23481700 </i>
   </energy>
  </scstep>
  <scstep>
   <time name="diag">    0.75    0.75</time>
   <time name="diis">    2.03    2.02</time>
   <time name="orth">    0.02    0.02</time>
   <time name="total">    4.09    4.08</time>
   <energy>
    <i name="e_fr_energy">   -224.23486293 </i>
    <i name="e_wo_entrp">   -224.23486293 </i>
    <i name="e_0_energy">   -224.23486293 </i>
   </energy>
  </scstep>
  <scstep>
   <time name="diag">    0.75    0.75</time>
   <time name="diis">    1.99    1.98</time>
   <time name="orth">    0.02    0.02</time>
   <time name="total">    3.00    2.99</time>
   <energy>
    <i name="alphaZ">   1822.16884311 </i>
    <i name="ewald"> -12684.49578923 </i>
    <i name="hartreedc">  -1347.30687872 </i>
    <i name="XCdc">   1349.92955228 </i>
    <i name="pawpsdc"> 477785.10214369 </i>
    <i name="pawaedc">-478010.82544886 </i>
    <i name="eentropy">      0.00000000 </i>
    <i name="bandstr">    497.21569911 </i>
    <i name="atom">  10363.97701633 </i>
    <i name="e_fr_energy">   -224.23486229 </i>
    <i name="e_wo_entrp">   -224.23486229 </i>
    <i name="e_0_energy">   -224.23486229 </i>
   </energy>
  </scstep>
  <structure>
   <crystal>
    <varray name="basis" >
     <v>       9.30793104      -1.68487537       4.99697157 </v>
     <v>       1.73921532      13.61375702       3.55696351 </v>
     <v>       2.65176677       0.97380431       6.07698844 </v>
    </varray>
    <i name="volume">    567.79600283 </i>
    <varray name="rec_basis" >
     <v>       0.13960447      -0.00200240      -0.06059721 </v>
     <v>       0.02660294       0.07628336      -0.02383250 </v>
     <v>      -0.13036477      -0.04300341       0.22833249 </v>
    </varray>
   </crystal>
   <varray name="positions" >
    <v>       0.22947317       0.42616167       0.42675200 </v>
    <v>       0.22947317       0.42616167       0.92675200 </v>
    <v>       0.22947317       0.92616167       0.42675200 </v>
    <v>       0.22947317       0.92616167       0.92675200 </v>
    <v>       0.72947317       0.42616167       0.42675200 </v>
    <v>       0.72947317       0.42616167       0.92675200 </v>
    <v>       0.72947317       0.92616167       0.42675200 </v>
    <v>       0.72947317       0.92616167       0.92675200 </v>
    <v>       0.40390169       0.36037632       0.12765259 </v>
    <v>       0.40390169       0.36037632       0.62765259 </v>
    <v>       0.40390169       0.86037632       0.12765259 </v>
    <v>       0.40390169       0.86037632       0.62765259 </v>
    <v>       0.90390169       0.36037632       0.12765259 </v>
    <v>       0.90390169       0.36037632       0.62765259 </v>
    <v>       0.90390169       0.86037632       0.12765259 </v>
    <v>       0.90390169       0.86037632       0.62765259 </v>
    <v>       0.40579980       0.14203655       0.34294859 </v>
    <v>       0.40579980       0.14203655       0.84294859 </v>
    <v>       0.40579980       0.64203655       0.34294859 </v>
    <v>       0.40579980       0.64203655       0.84294859 </v>
    <v>       0.90579980       0.14203655       0.34294859 </v>
    <v>       0.90579980       0.14203655       0.84294859 </v>
    <v>       0.90579980       0.64203655       0.34294859 </v>
    <v>       0.90579980       0.64203655       0.84294859 </v>
    <v>       0.28055734       0.08977695       0.10012888 </v>
    <v>       0.28055734       0.08977695       0.60012888 </v>
    <v>       0.28055734       0.58977695       0.10012888 </v>
    <v>       0.28055734       0.58977695       0.60012888 </v>
    <v>       0.78055734       0.08977695       0.10012888 </v>
    <v>       0.78055734       0.08977695       0.60012888 </v>
    <v>       0.78055734       0.58977695       0.10012888 </v>
    <v>       0.78055734       0.58977695       0.60012888 </v>
    <v>       0.13636546       0.11275107       0.35895211 </v>
    <v>       0.13636546       0.11275107       0.85895211 </v>
    <v>       0.13636546       0.61275107       0.35895211 </v>
    <v>       0.13636546       0.61275107       0.85895211 </v>
    <v>       0.63636546       0.11275107       0.35895211 </v>
    <v>       0.63636546       0.11275107       0.85895211 </v>
    <v>       0.63636546       0.61275107       0.35895211 </v>
    <v>       0.63636546       0.61275107       0.85895211 </v>
    <v>       0.13825882       0.35368380       0.11498282 </v>
    <v>       0.13825882       0.35368380       0.61498282 </v>
    <v>       0.13825882       0.85368380       0.11498282 </v>
    <v>       0.13825882       0.85368380       0.61498282 </v>
    <v>       0.63825882       0.35368380       0.11498282 </v>
    <v>       0.63825882       0.35368380       0.61498282 </v>
    <v>       0.63825882       0.85368380       0.11498282 </v>
    <v>       0.63825882       0.85368380       0.61498282 </v>
    <v>       0.57663133       0.46572299       0.31603457 </v>
    <v>       0.57663133       0.46572299       0.81603457 </v>
    <v>       0.57663133      -0.03427701       0.31603457 </v>
    <v>       0.57663133      -0.03427701       0.81603457 </v>
    <v>       0.07663133       0.46572299       0.31603457 </v>
    <v>       0.07663133       0.46572299       0.81603457 </v>
    <v>       0.07663133      -0.03427701       0.31603457 </v>
    <v>       0.07663133      -0.03427701       0.81603457 </v>
    <v>       0.58388832       0.33518518       0.43493371 </v>
    <v>       0.58388832       0.33518518      -0.06506629 </v>
    <v>       0.58388832       0.83518518       0.43493371 </v>
    <v>       0.58388832       0.83518518      -0.06506629 </v>
    <v>       0.08388832       0.33518518       0.43493371 </v>
    <v>       0.08388832       0.33518518      -0.06506629 </v>
    <v>       0.08388832       0.83518518       0.43493371 </v>
    <v>       0.08388832       0.83518518      -0.06506629 </v>
    <v>       0.19175976       0.05118210       0.07710472 </v>
    <v>       0.19175976       0.05118210       0.57710472 </v>
    <v>       0.19175976       0.55118210       0.07710472 </v>
    <v>       0.19175976       0.55118210       0.57710472 </v>
    <v>       0.69175976       0.05118210       0.07710472 </v>
    <v>       0.69175976       0.05118210       0.57710472 </v>
    <v>       0.69175976       0.55118210       0.07710472 </v>
    <v>       0.69175976       0.55118210       0.57710472 </v>
    <v>      -0.06513642       0.01755048       0.16340838 </v>
    <v>      -0.06513642       0.01755048       0.66340838 </v>
    <v>      -0.06513642       0.51755048       0.16340838 </v>
    <v>      -0.06513642       0.51755048       0.66340838 </v>
    <v>       0.43486358       0.01755048       0.16340838 </v>
    <v>       0.43486358       0.01755048       0.66340838 </v>
    <v>       0.43486358       0.51755048       0.16340838 </v>
    <v>       0.43486358       0.51755048       0.66340838 </v>
    <v>      -0.07328741       0.15244918       0.04158200 </v>
    <v>      -0.07328741       0.15244918       0.54158200 </v>
    <v>      -0.07328741       0.65244918       0.04158200 </v>
    <v>      -0.07328741       0.65244918       0.54158200 </v>
    <v>       0.42671259       0.15244918       0.04158200 </v>
    <v>       0.42671259       0.15244918       0.54158200 </v>
    <v>       0.42671259       0.65244918       0.04158200 </v>
    <v>       0.42671259       0.65244918       0.54158200 </v>
    <v>       0.12989832       0.28763122       0.30394282 </v>
    <v>       0.12989832       0.28763122       0.80394282 </v>
    <v>       0.12989832       0.78763122       0.30394282 </v>
    <v>       0.12989832       0.78763122       0.80394282 </v>
    <v>       0.62989832       0.28763122       0.30394282 </v>
    <v>       0.62989832       0.28763122       0.80394282 </v>
    <v>       0.62989832       0.78763122       0.30394282 </v>
    <v>       0.62989832       0.78763122       0.80394282 </v>
    <v>       0.40524730       0.47476162       0.45420419 </v>
    <v>       0.40524730       0.47476162       0.95420419 </v>
    <v>       0.40524730       0.97476162       0.45420419 </v>
    <v>       0.40524730       0.97476162       0.95420419 </v>
    <v>       0.90524730       0.47476162       0.45420419 </v>
    <v>       0.90524730       0.47476162       0.95420419 </v>
    <v>       0.90524730       0.97476162       0.45420419 </v>
    <v>       0.90524730       0.97476162       0.95420419 </v>
    <v>       0.29229247       0.30468672       0.29665835 </v>
    <v>       0.29229247       0.30468672       0.79665835 </v>
    <v>       0.29229247       0.80468672       0.29665835 </v>
    <v>       0.29229247       0.80468672       0.79665835 </v>
    <v>       0.79229247       0.30468672       0.29665835 </v>
    <v>       0.79229247       0.30468672       0.79665835 </v>
    <v>       0.79229247       0.80468672       0.29665835 </v>
    <v>       0.79229247       0.80468672       0.79665835 </v>
    <v>       0.11435006       0.17604514       0.19071527 </v>
    <v>       0.11435006       0.17604514       0.69071527 </v>
    <v>       0.11435006       0.67604514       0.19071527 </v>
    <v>       0.11435006       0.67604514       0.69071527 </v>
    <v>       0.61435006       0.17604514       0.19071527 </v>
    <v>       0.61435006       0.17604514       0.69071527 </v>
    <v>       0.61435006       0.67604514       0.19071527 </v>
    <v>       0.61435006       0.67604514       0.69071527 </v>
   </varray>
  </structure>
  <varray name="forces" >
   <v>      37.70956226     -77.57274999     -13.22236976 </v>
   <v>      37.70956226     -77.57274999     -13.22236976 </v>
   <v>      37.70956226     -77.57274999     -13.22236976 </v>
   <v>      37.70956226     -77.57274999     -13.22236976 </v>
   <v>      37.70956226     -77.57274999     -13.22236976 </v>
   <v>      37.70956226     -77.57274999     -13.22236976 </v>
   <v>      37.70956226     -77.57274999     -13.22236976 </v>
   <v>      37.70956226     -77.57274999     -13.22236976 </v>
   <v>      67.04001249     -88.35479485     -23.47002717 </v>
   <v>      67.04001249     -88.35479485     -23.47002717 </v>
   <v>      67.04001249     -88.35479485     -23.47002717 </v>
   <v>      67.04001249     -88.35479485     -23.47002717 </v>
   <v>      67.04001249     -88.35479485     -23.47002717 </v>
   <v>      67.04001249     -88.35479485     -23.47002717 </v>
   <v>      67.04001249     -88.35479485     -23.47002717 </v>
   <v>      67.04001249     -88.35479485     -23.47002717 </v>
   <v>      72.42578051    -162.95426308      -8.59714560 </v>
   <v>      72.42578051    -162.95426308      -8.59714560 </v>
   <v>      72.42578051    -162.95426308      -8.59714560 </v>
   <v>      72.42578051    -162.95426308      -8.59714560 </v>
   <v>      72.42578051    -162.95426308      -8.59714560 </v>
   <v>      72.42578051    -162.95426308      -8.59714560 </v>
   <v>      72.42578051    -162.95426308      -8.59714560 </v>
   <v>      72.42578051    -162.95426308      -8.59714560 </v>
   <v>     -28.01000437      84.36700136      22.47417609 </v>
   <v>     -28.01000437      84.36700136      22.47417609 </v>
   <v>     -28.01000437      84.36700136      22.47417609 </v>
   <v>     -28.01000437      84.36700136      22.47417609 </v>
   <v>     -28.01000437      84.36700136      22.47417609 </v>
   <v>     -28.01000437      84.36700136      22.47417609 </v>
   <v>     -28.01000437      84.36700136      22.47417609 </v>
   <v>     -28.01000437      84.36700136      22.47417609 </v>
   <v>     -30.68549696     101.94216746      -5.83044021 </v>
   <v>     -30.68549696     101.94216746      -5.83044021 </v>
   <v>     -30.68549696     101.94216746      -5.83044021 </v>
   <v>     -30.68549696     101.94216746      -5.83044021 </v>
   <v>     -30.68549696     101.94216746      -5.83044021 </v>
   <v>     -30.68549696     101.94216746      -5.83044021 </v>
   <v>     -30.68549696     101.94216746      -5.83044021 </v>
   <v>     -30.68549696     101.94216746      -5.83044021 </v>
   <v>     -22.64231228      -9.46576884      16.38093853 </v>
   <v>     -22.64231228      -9.46576884      16.38093853 </v>
   <v>     -22.64231228      -9.46576884      16.38093853 </v>
   <v>     -22.64231228      -9.46576884      16.38093853 </v>
   <v>     -22.64231228      -9.46576884      16.38093853 </v>
   <v>     -22.64231228      -9.46576884      16.38093853 </v>
   <v>     -22.64231228      -9.46576884      16.38093853 </v>
   <v>     -22.64231228      -9.46576884      16.38093853 </v>
   <v>      -8.73823620      15.98181086      22.15286075 </v>
   <v>      -8.73823620      15.98181086      22.15286075 </v>
   <v>      -8.73823620      15.98181086      22.15286075 </v>
   <v>      -8.73823620      15.98181086      22.15286075 </v>
   <v>      -8.73823620      15.98181086      22.15286075 </v>
   <v>      -8.73823620      15.98181086      22.15286075 </v>
   <v>      -8.73823620      15.98181086      22.15286075 </v>
   <v>      -8.73823620      15.98181086      22.15286075 </v>
   <v>     -13.34787879      79.83099359       9.42326152 </v>
   <v>     -13.34787879      79.83099359       9.42326152 </v>
   <v>     -13.34787879      79.83099359       9.42326152 </v>
   <v>     -13.34787879      79.83099359       9.42326152 </v>
   <v>     -13.34787879      79.83099359       9.42326152 </v>
   <v>     -13.34787879      79.83099359       9.42326152 </v>
   <v>     -13.34787879      79.83099359       9.42326152 </v>
   <v>     -13.34787879      79.83099359       9.42326152 </v>
   <v>      17.38598853     -52.78895054     -14.14940397 </v>
   <v>      17.38598853     -52.78895054     -14.14940397 </v>
   <v>      17.38598853     -52.78895054     -14.14940397 </v>
   <v>      17.38598853     -52.78895054     -14.14940397 </v>
   <v>      17.38598853     -52.78895054     -14.14940397 </v>
   <v>      17.38598853     -52.78895054     -14.14940397 </v>
   <v>      17.38598853     -52.78895054     -14.14940397 </v>
   <v>      17.38598853     -52.78895054     -14.14940397 </v>
   <v>      -1.04971562      16.51060966      -1.53851823 </v>
   <v>      -1.04971562      16.51060966      -1.53851823 </v>
   <v>      -1.04971562      16.51060966      -1.53851823 </v>
   <v>      -1.04971562      16.51060966      -1.53851823 </v>
   <v>      -1.04971562      16.51060966      -1.53851823 </v>
   <v>      -1.04971562      16.51060966      -1.53851823 </v>
   <v>      -1.04971562      16.51060966      -1.53851823 </v>
   <v>      -1.04971562      16.51060966      -1.53851823 </v>
   <v>       0.95122332     -11.20483983       3.98710558 </v>
   <v>       0.95122332     -11.20483983       3.98710558 </v>
   <v>       0.95122332     -11.20483983       3.98710558 </v>
   <v>       0.95122332     -11.20483983       3.98710558 </v>
   <v>       0.95122332     -11.20483983       3.98710558 </v>
   <v>       0.95122332     -11.20483983       3.98710558 </v>
   <v>       0.95122332     -11.20483983       3.98710558 </v>
   <v>       0.95122332     -11.20483983       3.98710558 </v>
   <v>       0.34467221      -6.79381544      -2.99926590 </v>
   <v>       0.34467221      -6.79381544      -2.99926590 </v>
   <v>       0.34467221      -6.79381544      -2.99926590 </v>
   <v>       0.34467221      -6.79381544      -2.99926590 </v>
   <v>       0.34467221      -6.79381544      -2.99926590 </v>
   <v>       0.34467221      -6.79381544      -2.99926590 </v>
   <v>       0.34467221      -6.79381544      -2.99926590 </v>
   <v>       0.34467221      -6.79381544      -2.99926590 </v>
   <v>      -9.78005019      44.09238998      14.77003791 </v>
   <v>      -9.78005019      44.09238998      14.77003791 </v>
   <v>      -9.78005019      44.09238998      14.77003791 </v>
   <v>      -9.78005019      44.09238998      14.77003791 </v>
   <v>      -9.78005019      44.09238998      14.77003791 </v>
   <v>      -9.78005019      44.09238998      14.77003791 </v>
   <v>      -9.78005019      44.09238998      14.77003791 </v>
   <v>      -9.78005019      44.09238998      14.77003791 </v>
   <v>    -113.98794501     153.12125908       1.47884490 </v>
   <v>    -113.98794501     153.12125908       1.47884490 </v>
   <v>    -113.98794501     153.12125908       1.47884490 </v>
   <v>    -113.98794501     153.12125908       1.47884490 </v>
   <v>    -113.98794501     153.12125908       1.47884490 </v>
   <v>    -113.98794501     153.12125908       1.47884490 </v>
   <v>    -113.98794501     153.12125908       1.47884490 </v>
   <v>    -113.98794501     153.12125908       1.47884490 </v>
   <v>      32.38440010     -86.71104942     -20.86005443 </v>
   <v>      32.38440010     -86.71104942     -20.86005443 </v>
   <v>      32.38440010     -86.71104942     -20.86005443 </v>
   <v>      32.38440010     -86.71104942     -20.86005443 </v>
   <v>      32.38440010     -86.71104942     -20.86005443 </v>
   <v>      32.38440010     -86.71104942     -20.86005443 </v>
   <v>      32.38440010     -86.71104942     -20.86005443 </v>
   <v>      32.38440010     -86.71104942     -20.86005443 </v>
  </varray>
  <varray name="stress" >
   <v>    9656.68347871  -15267.98835164     601.38229381 </v>
   <v>  -15286.36195790   69428.69846228   -1781.91148609 </v>
   <v>     592.69065092   -1770.47428026    4537.53689202 </v>
  </varray>
  <energy>
   <i name="e_fr_energy">   -224.23486229 </i>
   <i name="e_wo_entrp">   -224.23486229 </i>
   <i name="e_0_energy">   -224.23486229 </i>
  </energy>
  <time name="totalsc">  134.85  134.24</time>
 </calculation>
