unknown system                          
            1
     8.003259    0.043475    3.630532
     2.318703    7.882404    3.712568
    -0.044563    0.062398    9.015871
   B    C 
    96    24
unknown system                          
            1
     8.003259    0.043475    3.630532
     2.318703    7.882404    3.712568
    -0.044563    0.062398    9.015871
   B    C 
    96    24
Direct configuration=     1
   0.15792300  0.40375800  0.40375800
   0.15792300  0.40375800  0.90375800
   0.15792300  0.90375800  0.40375800
   0.15792300  0.90375800  0.90375800
   0.65792300  0.40375800  0.40375800
   0.65792300  0.40375800  0.90375800
   0.65792300  0.90375800  0.40375800
   0.65792300  0.90375800  0.90375800
   0.40163200  0.40233800  0.15722000
   0.40163200  0.40233800  0.65722000
   0.40163200  0.90233800  0.15722000
   0.40163200  0.90233800  0.65722000
   0.90163200  0.40233800  0.15722000
   0.90163200  0.40233800  0.65722000
   0.90163200  0.90233800  0.15722000
   0.90163200  0.90233800  0.65722000
   0.40163200  0.15722000  0.40233800
   0.40163200  0.15722000  0.90233800
   0.40163200  0.65722000  0.40233800
   0.40163200  0.65722000  0.90233800
   0.90163200  0.15722000  0.40233800
   0.90163200  0.15722000  0.90233800
   0.90163200  0.65722000  0.40233800
   0.90163200  0.65722000  0.90233800
   0.34136600  0.09666500  0.09666500
   0.34136600  0.09666500  0.59666500
   0.34136600  0.59666500  0.09666500
   0.34136600  0.59666500  0.59666500
   0.84136600  0.09666500  0.09666500
   0.84136600  0.09666500  0.59666500
   0.84136600  0.59666500  0.09666500
   0.84136600  0.59666500  0.59666500
   0.09870000  0.09683600  0.34371100
   0.09870000  0.09683600  0.84371100
   0.09870000  0.59683600  0.34371100
   0.09870000  0.59683600  0.84371100
   0.59870000  0.09683600  0.34371100
   0.59870000  0.09683600  0.84371100
   0.59870000  0.59683600  0.34371100
   0.59870000  0.59683600  0.84371100
   0.09870000  0.34371100  0.09683600
   0.09870000  0.34371100  0.59683600
   0.09870000  0.84371100  0.09683600
   0.09870000  0.84371100  0.59683600
   0.59870000  0.34371100  0.09683600
   0.59870000  0.34371100  0.59683600
   0.59870000  0.84371100  0.09683600
   0.59870000  0.84371100  0.59683600
   0.49444700  0.49739900  0.33679800
   0.49444700  0.49739900  0.83679800
   0.49444700  0.99739900  0.33679800
   0.49444700  0.99739900  0.83679800
   0.99444700  0.49739900  0.33679800
   0.99444700  0.49739900  0.83679800
   0.99444700  0.99739900  0.33679800
   0.99444700  0.99739900  0.83679800
   0.49444700  0.33679800  0.49739900
   0.49444700  0.33679800  0.99739900
   0.49444700  0.83679800  0.49739900
   0.49444700  0.83679800  0.99739900
   0.99444700  0.33679800  0.49739900
   0.99444700  0.33679800  0.99739900
   0.99444700  0.83679800  0.49739900
   0.99444700  0.83679800  0.99739900
   0.17079500  0.00295000  0.00295000
   0.17079500  0.00295000  0.50295000
   0.17079500  0.50295000  0.00295000
   0.17079500  0.50295000  0.50295000
   0.67079500  0.00295000  0.00295000
   0.67079500  0.00295000  0.50295000
   0.67079500  0.50295000  0.00295000
   0.67079500  0.50295000  0.50295000
   0.00347500  0.00275500  0.16436200
   0.00347500  0.00275500  0.66436200
   0.00347500  0.50275500  0.16436200
   0.00347500  0.50275500  0.66436200
   0.50347500  0.00275500  0.16436200
   0.50347500  0.00275500  0.66436200
   0.50347500  0.50275500  0.16436200
   0.50347500  0.50275500  0.66436200
   0.00347500  0.16436200  0.00275500
   0.00347500  0.16436200  0.50275500
   0.00347500  0.66436200  0.00275500
   0.00347500  0.66436200  0.50275500
   0.50347500  0.16436200  0.00275500
   0.50347500  0.16436200  0.50275500
   0.50347500  0.66436200  0.00275500
   0.50347500  0.66436200  0.50275500
   0.24799500  0.24900900  0.24900900
   0.24799500  0.24900900  0.74900900
   0.24799500  0.74900900  0.24900900
   0.24799500  0.74900900  0.74900900
   0.74799500  0.24900900  0.24900900
   0.74799500  0.24900900  0.74900900
   0.74799500  0.74900900  0.24900900
   0.74799500  0.74900900  0.74900900
   0.33833600  0.49792800  0.49792800
   0.33833600  0.49792800  0.99792800
   0.33833600  0.99792800  0.49792800
   0.33833600  0.99792800  0.99792800
   0.83833600  0.49792800  0.49792800
   0.83833600  0.49792800  0.99792800
   0.83833600  0.99792800  0.49792800
   0.83833600  0.99792800  0.99792800
   0.30608800  0.30943700  0.30943700
   0.30608800  0.30943700  0.80943700
   0.30608800  0.80943700  0.30943700
   0.30608800  0.80943700  0.80943700
   0.80608800  0.30943700  0.30943700
   0.80608800  0.30943700  0.80943700
   0.80608800  0.80943700  0.30943700
   0.80608800  0.80943700  0.80943700
   0.19098900  0.18883500  0.18883500
   0.19098900  0.18883500  0.68883500
   0.19098900  0.68883500  0.18883500
   0.19098900  0.68883500  0.68883500
   0.69098900  0.18883500  0.18883500
   0.69098900  0.18883500  0.68883500
   0.69098900  0.68883500  0.18883500
   0.69098900  0.68883500  0.68883500
unknown system                          
            1
     8.004118    0.104682    3.721168
     2.361749    7.892482    3.843676
     0.024132    0.157346    9.089422
   B    C 
    96    24
Direct configuration=     2
   0.16471408  0.39930197  0.39930197
   0.16471408  0.39930197  0.89930197
   0.16471408  0.89930197  0.39930197
   0.16471408  0.89930197  0.89930197
   0.66471408  0.39930197  0.39930197
   0.66471408  0.39930197  0.89930197
   0.66471408  0.89930197  0.39930197
   0.66471408  0.89930197  0.89930197
   0.39392585  0.39529586  0.16529120
   0.39392585  0.39529586  0.66529120
   0.39392585  0.89529586  0.16529120
   0.39392585  0.89529586  0.66529120
   0.89392585  0.39529586  0.16529120
   0.89392585  0.39529586  0.66529120
   0.89392585  0.89529586  0.16529120
   0.89392585  0.89529586  0.66529120
   0.39392585  0.16529120  0.39529586
   0.39392585  0.16529120  0.89529586
   0.39392585  0.66529120  0.39529586
   0.39392585  0.66529120  0.89529586
   0.89392585  0.16529120  0.39529586
   0.89392585  0.16529120  0.89529586
   0.89392585  0.66529120  0.39529586
   0.89392585  0.66529120  0.89529586
   0.33531893  0.10141741  0.10141741
   0.33531893  0.10141741  0.60141741
   0.33531893  0.60141741  0.10141741
   0.33531893  0.60141741  0.60141741
   0.83531893  0.10141741  0.10141741
   0.83531893  0.10141741  0.60141741
   0.83531893  0.60141741  0.10141741
   0.83531893  0.60141741  0.60141741
   0.10625199  0.10349283  0.33808491
   0.10625199  0.10349283  0.83808491
   0.10625199  0.60349283  0.33808491
   0.10625199  0.60349283  0.83808491
   0.60625199  0.10349283  0.33808491
   0.60625199  0.10349283  0.83808491
   0.60625199  0.60349283  0.33808491
   0.60625199  0.60349283  0.83808491
   0.10625199  0.33808491  0.10349283
   0.10625199  0.33808491  0.60349283
   0.10625199  0.83808491  0.10349283
   0.10625199  0.83808491  0.60349283
   0.60625199  0.33808491  0.10349283
   0.60625199  0.33808491  0.60349283
   0.60625199  0.83808491  0.10349283
   0.60625199  0.83808491  0.60349283
   0.49043201  0.49577176  0.32608485
   0.49043201  0.49577176  0.82608485
   0.49043201  0.99577176  0.32608485
   0.49043201  0.99577176  0.82608485
   0.99043201  0.49577176  0.32608485
   0.99043201  0.49577176  0.82608485
   0.99043201  0.99577176  0.32608485
   0.99043201  0.99577176  0.82608485
   0.49043201  0.32608485  0.49577176
   0.49043201  0.32608485  0.99577176
   0.49043201  0.82608485  0.49577176
   0.49043201  0.82608485  0.99577176
   0.99043201  0.32608485  0.49577176
   0.99043201  0.32608485  0.99577176
   0.99043201  0.82608485  0.49577176
   0.99043201  0.82608485  0.99577176
   0.17493642  0.00628307  0.00628307
   0.17493642  0.00628307  0.50628307
   0.17493642  0.50628307  0.00628307
   0.17493642  0.50628307  0.50628307
   0.67493642  0.00628307  0.00628307
   0.67493642  0.00628307  0.50628307
   0.67493642  0.50628307  0.00628307
   0.67493642  0.50628307  0.50628307
   0.00924761  0.00498081  0.17410082
   0.00924761  0.00498081  0.67410082
   0.00924761  0.50498081  0.17410082
   0.00924761  0.50498081  0.67410082
   0.50924761  0.00498081  0.17410082
   0.50924761  0.00498081  0.67410082
   0.50924761  0.50498081  0.17410082
   0.50924761  0.50498081  0.67410082
   0.00924761  0.17410082  0.00498081
   0.00924761  0.17410082  0.50498081
   0.00924761  0.67410082  0.00498081
   0.00924761  0.67410082  0.50498081
   0.50924761  0.17410082  0.00498081
   0.50924761  0.17410082  0.50498081
   0.50924761  0.67410082  0.00498081
   0.50924761  0.67410082  0.50498081
   0.24819620  0.25142245  0.25142245
   0.24819620  0.25142245  0.75142245
   0.24819620  0.75142245  0.25142245
   0.24819620  0.75142245  0.75142245
   0.74819620  0.25142245  0.25142245
   0.74819620  0.25142245  0.75142245
   0.74819620  0.75142245  0.25142245
   0.74819620  0.75142245  0.75142245
   0.33258311  0.49462078  0.49462078
   0.33258311  0.49462078  0.99462078
   0.33258311  0.99462078  0.49462078
   0.33258311  0.99462078  0.99462078
   0.83258311  0.49462078  0.49462078
   0.83258311  0.49462078  0.99462078
   0.83258311  0.99462078  0.49462078
   0.83258311  0.99462078  0.99462078
   0.32195143  0.32442729  0.32442729
   0.32195143  0.32442729  0.82442729
   0.32195143  0.82442729  0.32442729
   0.32195143  0.82442729  0.82442729
   0.82195143  0.32442729  0.32442729
   0.82195143  0.32442729  0.82442729
   0.82195143  0.82442729  0.32442729
   0.82195143  0.82442729  0.82442729
   0.17258492  0.16942498  0.16942498
   0.17258492  0.16942498  0.66942498
   0.17258492  0.66942498  0.16942498
   0.17258492  0.66942498  0.66942498
   0.67258492  0.16942498  0.16942498
   0.67258492  0.16942498  0.66942498
   0.67258492  0.66942498  0.16942498
   0.67258492  0.66942498  0.66942498
unknown system                          
            1
     8.003336    0.055924    3.648924
     2.327431    7.884358    3.739191
    -0.030589    0.081710    9.030722
   B    C 
    96    24
Direct configuration=     3
   0.15925685  0.40284698  0.40284698
   0.15925685  0.40284698  0.90284698
   0.15925685  0.90284698  0.40284698
   0.15925685  0.90284698  0.90284698
   0.65925685  0.40284698  0.40284698
   0.65925685  0.40284698  0.90284698
   0.65925685  0.90284698  0.40284698
   0.65925685  0.90284698  0.90284698
   0.40008184  0.40092996  0.15875427
   0.40008184  0.40092996  0.65875427
   0.40008184  0.90092996  0.15875427
   0.40008184  0.90092996  0.65875427
   0.90008184  0.40092996  0.15875427
   0.90008184  0.40092996  0.65875427
   0.90008184  0.90092996  0.15875427
   0.90008184  0.90092996  0.65875427
   0.40008184  0.15875427  0.40092996
   0.40008184  0.15875427  0.90092996
   0.40008184  0.65875427  0.40092996
   0.40008184  0.65875427  0.90092996
   0.90008184  0.15875427  0.40092996
   0.90008184  0.15875427  0.90092996
   0.90008184  0.65875427  0.40092996
   0.90008184  0.65875427  0.90092996
   0.34018460  0.09764388  0.09764388
   0.34018460  0.09764388  0.59764388
   0.34018460  0.59764388  0.09764388
   0.34018460  0.59764388  0.59764388
   0.84018460  0.09764388  0.09764388
   0.84018460  0.09764388  0.59764388
   0.84018460  0.59764388  0.09764388
   0.84018460  0.59764388  0.59764388
   0.10022736  0.09818769  0.34267141
   0.10022736  0.09818769  0.84267141
   0.10022736  0.59818769  0.34267141
   0.10022736  0.59818769  0.84267141
   0.60022736  0.09818769  0.34267141
   0.60022736  0.09818769  0.84267141
   0.60022736  0.59818769  0.34267141
   0.60022736  0.59818769  0.84267141
   0.10022736  0.34267141  0.09818769
   0.10022736  0.34267141  0.59818769
   0.10022736  0.84267141  0.09818769
   0.10022736  0.84267141  0.59818769
   0.60022736  0.34267141  0.09818769
   0.60022736  0.34267141  0.59818769
   0.60022736  0.84267141  0.09818769
   0.60022736  0.84267141  0.59818769
   0.49358750  0.49694039  0.33457052
   0.49358750  0.49694039  0.83457052
   0.49358750  0.99694039  0.33457052
   0.49358750  0.99694039  0.83457052
   0.99358750  0.49694039  0.33457052
   0.99358750  0.49694039  0.83457052
   0.99358750  0.99694039  0.33457052
   0.99358750  0.99694039  0.83457052
   0.49358750  0.33457052  0.49694039
   0.49358750  0.33457052  0.99694039
   0.49358750  0.83457052  0.49694039
   0.49358750  0.83457052  0.99694039
   0.99358750  0.33457052  0.49694039
   0.99358750  0.33457052  0.99694039
   0.99358750  0.83457052  0.49694039
   0.99358750  0.83457052  0.99694039
   0.17165715  0.00368749  0.00368749
   0.17165715  0.00368749  0.50368749
   0.17165715  0.50368749  0.00368749
   0.17165715  0.50368749  0.50368749
   0.67165715  0.00368749  0.00368749
   0.67165715  0.00368749  0.50368749
   0.67165715  0.50368749  0.00368749
   0.67165715  0.50368749  0.50368749
   0.00468750  0.00333725  0.16640691
   0.00468750  0.00333725  0.66640691
   0.00468750  0.50333725  0.16640691
   0.00468750  0.50333725  0.66640691
   0.50468750  0.00333725  0.16640691
   0.50468750  0.00333725  0.66640691
   0.50468750  0.50333725  0.16640691
   0.50468750  0.50333725  0.66640691
   0.00468750  0.16640691  0.00333725
   0.00468750  0.16640691  0.50333725
   0.00468750  0.66640691  0.00333725
   0.00468750  0.66640691  0.50333725
   0.50468750  0.16640691  0.00333725
   0.50468750  0.16640691  0.50333725
   0.50468750  0.66640691  0.00333725
   0.50468750  0.66640691  0.50333725
   0.24805502  0.24952600  0.24952600
   0.24805502  0.24952600  0.74952600
   0.24805502  0.74952600  0.24952600
   0.24805502  0.74952600  0.74952600
   0.74805502  0.24952600  0.24952600
   0.74805502  0.24952600  0.74952600
   0.74805502  0.74952600  0.24952600
   0.74805502  0.74952600  0.74952600
   0.33714903  0.49718624  0.49718624
   0.33714903  0.49718624  0.99718624
   0.33714903  0.99718624  0.49718624
   0.33714903  0.99718624  0.99718624
   0.83714903  0.49718624  0.49718624
   0.83714903  0.49718624  0.99718624
   0.83714903  0.99718624  0.49718624
   0.83714903  0.99718624  0.99718624
   0.30940832  0.31273703  0.31273703
   0.30940832  0.31273703  0.81273703
   0.30940832  0.81273703  0.31273703
   0.30940832  0.81273703  0.81273703
   0.80940832  0.31273703  0.31273703
   0.80940832  0.31273703  0.81273703
   0.80940832  0.81273703  0.31273703
   0.80940832  0.81273703  0.81273703
   0.18712064  0.18457498  0.18457498
   0.18712064  0.18457498  0.68457498
   0.18712064  0.68457498  0.18457498
   0.18712064  0.68457498  0.68457498
   0.68712064  0.18457498  0.18457498
   0.68712064  0.18457498  0.68457498
   0.68712064  0.68457498  0.18457498
   0.68712064  0.68457498  0.68457498
unknown system                          
            1
     8.003329    0.054995    3.647550
     2.326779    7.884211    3.737203
    -0.031632    0.080269    9.029612
   B    C 
    96    24
Direct configuration=     4
   0.15915354  0.40291463  0.40291463
   0.15915354  0.40291463  0.90291463
   0.15915354  0.90291463  0.40291463
   0.15915354  0.90291463  0.90291463
   0.65915354  0.40291463  0.40291463
   0.65915354  0.40291463  0.90291463
   0.65915354  0.90291463  0.40291463
   0.65915354  0.90291463  0.90291463
   0.40019893  0.40103698  0.15863129
   0.40019893  0.40103698  0.65863129
   0.40019893  0.90103698  0.15863129
   0.40019893  0.90103698  0.65863129
   0.90019893  0.40103698  0.15863129
   0.90019893  0.40103698  0.65863129
   0.90019893  0.90103698  0.15863129
   0.90019893  0.90103698  0.65863129
   0.40019892  0.15863129  0.40103698
   0.40019892  0.15863129  0.90103698
   0.40019892  0.65863129  0.40103698
   0.40019892  0.65863129  0.90103698
   0.90019892  0.15863129  0.40103698
   0.90019892  0.15863129  0.90103698
   0.90019892  0.65863129  0.40103698
   0.90019892  0.65863129  0.90103698
   0.34027662  0.09757177  0.09757176
   0.34027662  0.09757177  0.59757176
   0.34027662  0.59757177  0.09757176
   0.34027662  0.59757177  0.59757176
   0.84027662  0.09757177  0.09757176
   0.84027662  0.09757177  0.59757176
   0.84027662  0.59757177  0.09757176
   0.84027662  0.59757177  0.59757176
   0.10011265  0.09808660  0.34275725
   0.10011265  0.09808660  0.84275725
   0.10011265  0.59808660  0.34275725
   0.10011265  0.59808660  0.84275725
   0.60011265  0.09808660  0.34275725
   0.60011265  0.09808660  0.84275725
   0.60011265  0.59808660  0.34275725
   0.60011265  0.59808660  0.84275725
   0.10011265  0.34275725  0.09808660
   0.10011265  0.34275725  0.59808660
   0.10011265  0.84275725  0.09808660
   0.10011265  0.84275725  0.59808660
   0.60011265  0.34275725  0.09808660
   0.60011265  0.34275725  0.59808660
   0.60011265  0.84275725  0.09808660
   0.60011265  0.84275725  0.59808660
   0.49364830  0.49696460  0.33473300
   0.49364830  0.49696460  0.83473300
   0.49364830  0.99696460  0.33473300
   0.49364830  0.99696460  0.83473300
   0.99364830  0.49696460  0.33473300
   0.99364830  0.49696460  0.83473300
   0.99364830  0.99696460  0.33473300
   0.99364830  0.99696460  0.83473300
   0.49364830  0.33473300  0.49696460
   0.49364830  0.33473300  0.99696460
   0.49364830  0.83473300  0.49696460
   0.49364830  0.83473300  0.99696460
   0.99364830  0.33473300  0.49696460
   0.99364830  0.33473300  0.99696460
   0.99364830  0.83473300  0.49696460
   0.99364830  0.83473300  0.99696460
   0.17159434  0.00363711  0.00363711
   0.17159434  0.00363711  0.50363711
   0.17159434  0.50363711  0.00363711
   0.17159434  0.50363711  0.50363711
   0.67159434  0.00363711  0.00363711
   0.67159434  0.00363711  0.50363711
   0.67159434  0.50363711  0.00363711
   0.67159434  0.50363711  0.50363711
   0.00459999  0.00330396  0.16625928
   0.00459999  0.00330396  0.66625928
   0.00459999  0.50330396  0.16625928
   0.00459999  0.50330396  0.66625928
   0.50459999  0.00330396  0.16625928
   0.50459999  0.00330396  0.66625928
   0.50459999  0.50330396  0.16625928
   0.50459999  0.50330396  0.66625928
   0.00459999  0.16625928  0.00330396
   0.00459999  0.16625928  0.50330396
   0.00459999  0.66625928  0.00330396
   0.00459999  0.66625928  0.50330396
   0.50459999  0.16625928  0.00330396
   0.50459999  0.16625928  0.50330396
   0.50459999  0.66625928  0.00330396
   0.50459999  0.66625928  0.50330396
   0.24805204  0.24948946  0.24948946
   0.24805204  0.24948946  0.74948946
   0.24805204  0.74948946  0.24948946
   0.24805204  0.74948946  0.74948946
   0.74805204  0.24948946  0.24948946
   0.74805204  0.24948946  0.74948946
   0.74805204  0.74948946  0.24948946
   0.74805204  0.74948946  0.74948946
   0.33723632  0.49723619  0.49723619
   0.33723632  0.49723619  0.99723619
   0.33723632  0.99723619  0.49723619
   0.33723632  0.99723619  0.99723619
   0.83723632  0.49723619  0.49723619
   0.83723632  0.49723619  0.99723619
   0.83723632  0.99723619  0.49723619
   0.83723632  0.99723619  0.99723619
   0.30916781  0.31251039  0.31251039
   0.30916781  0.31251039  0.81251039
   0.30916781  0.81251039  0.31251039
   0.30916781  0.81251039  0.81251039
   0.80916781  0.31251039  0.31251039
   0.80916781  0.31251039  0.81251039
   0.80916781  0.81251039  0.31251039
   0.80916781  0.81251039  0.81251039
   0.18739961  0.18486849  0.18486850
   0.18739961  0.18486849  0.68486850
   0.18739961  0.68486849  0.18486850
   0.18739961  0.68486849  0.68486850
   0.68739961  0.18486849  0.18486850
   0.68739961  0.18486849  0.68486850
   0.68739961  0.68486849  0.18486850
   0.68739961  0.68486849  0.68486850
unknown system                          
            1
     7.943852   -0.038158    3.483687
     2.195971    7.900636    3.616786
    -0.185255    0.021197    8.960394
   B    C 
    96    24
Direct configuration=     5
   0.15498484  0.40563682  0.40563682
   0.15498484  0.40563682  0.90563682
   0.15498484  0.90563682  0.40563682
   0.15498484  0.90563682  0.90563682
   0.65498484  0.40563682  0.40563682
   0.65498484  0.40563682  0.90563682
   0.65498484  0.90563682  0.40563682
   0.65498484  0.90563682  0.90563682
   0.40144509  0.40148417  0.15563215
   0.40144509  0.40148417  0.65563215
   0.40144509  0.90148417  0.15563215
   0.40144509  0.90148417  0.65563215
   0.90144509  0.40148417  0.15563215
   0.90144509  0.40148417  0.65563215
   0.90144509  0.90148417  0.15563215
   0.90144509  0.90148417  0.65563215
   0.40144509  0.15563215  0.40148417
   0.40144509  0.15563215  0.90148417
   0.40144509  0.65563215  0.40148417
   0.40144509  0.65563215  0.90148417
   0.90144509  0.15563215  0.40148417
   0.90144509  0.15563215  0.90148417
   0.90144509  0.65563215  0.40148417
   0.90144509  0.65563215  0.90148417
   0.34583612  0.09493292  0.09493292
   0.34583612  0.09493292  0.59493292
   0.34583612  0.59493292  0.09493292
   0.34583612  0.59493292  0.59493292
   0.84583612  0.09493292  0.09493292
   0.84583612  0.09493292  0.59493292
   0.84583612  0.59493292  0.09493292
   0.84583612  0.59493292  0.59493292
   0.09969929  0.09834936  0.34591916
   0.09969929  0.09834936  0.84591916
   0.09969929  0.59834936  0.34591916
   0.09969929  0.59834936  0.84591916
   0.59969929  0.09834936  0.34591916
   0.59969929  0.09834936  0.84591916
   0.59969929  0.59834936  0.34591916
   0.59969929  0.59834936  0.84591916
   0.09969930  0.34591916  0.09834936
   0.09969930  0.34591916  0.59834936
   0.09969930  0.84591916  0.09834936
   0.09969930  0.84591916  0.59834936
   0.59969930  0.34591916  0.09834936
   0.59969930  0.34591916  0.59834936
   0.59969930  0.84591916  0.09834936
   0.59969930  0.84591916  0.59834936
   0.49108976  0.49655227  0.33611768
   0.49108976  0.49655227  0.83611768
   0.49108976  0.99655227  0.33611768
   0.49108976  0.99655227  0.83611768
   0.99108976  0.49655227  0.33611768
   0.99108976  0.49655227  0.83611768
   0.99108976  0.99655227  0.33611768
   0.99108976  0.99655227  0.83611768
   0.49108976  0.33611768  0.49655227
   0.49108976  0.33611768  0.99655227
   0.49108976  0.83611768  0.49655227
   0.49108976  0.83611768  0.99655227
   0.99108976  0.33611768  0.49655227
   0.99108976  0.33611768  0.99655227
   0.99108976  0.83611768  0.49655227
   0.99108976  0.83611768  0.99655227
   0.16955449  0.00572554  0.00572554
   0.16955449  0.00572554  0.50572554
   0.16955449  0.50572554  0.00572554
   0.16955449  0.50572554  0.50572554
   0.66955449  0.00572554  0.00572554
   0.66955449  0.00572554  0.50572554
   0.66955449  0.50572554  0.00572554
   0.66955449  0.50572554  0.50572554
   0.00781152  0.00409323  0.16504557
   0.00781152  0.00409323  0.66504557
   0.00781152  0.50409323  0.16504557
   0.00781152  0.50409323  0.66504557
   0.50781152  0.00409323  0.16504557
   0.50781152  0.00409323  0.66504557
   0.50781152  0.50409323  0.16504557
   0.50781152  0.50409323  0.66504557
   0.00781152  0.16504557  0.00409323
   0.00781152  0.16504557  0.50409323
   0.00781152  0.66504557  0.00409323
   0.00781152  0.66504557  0.50409323
   0.50781152  0.16504557  0.00409323
   0.50781152  0.16504557  0.50409323
   0.50781152  0.66504557  0.00409323
   0.50781152  0.66504557  0.50409323
   0.24411160  0.24729047  0.24729047
   0.24411160  0.24729047  0.74729047
   0.24411160  0.74729047  0.24729047
   0.24411160  0.74729047  0.74729047
   0.74411160  0.24729047  0.24729047
   0.74411160  0.24729047  0.74729047
   0.74411160  0.74729047  0.24729047
   0.74411160  0.74729047  0.74729047
   0.33977119  0.49488603  0.49488603
   0.33977119  0.49488603  0.99488603
   0.33977119  0.99488603  0.49488603
   0.33977119  0.99488603  0.99488603
   0.83977119  0.49488603  0.49488603
   0.83977119  0.49488603  0.99488603
   0.83977119  0.99488603  0.49488603
   0.83977119  0.99488603  0.99488603
   0.31301272  0.31615862  0.31615862
   0.31301272  0.31615862  0.81615862
   0.31301272  0.81615862  0.31615862
   0.31301272  0.81615862  0.81615862
   0.81301272  0.31615862  0.31615862
   0.81301272  0.31615862  0.81615862
   0.81301272  0.81615862  0.31615862
   0.81301272  0.81615862  0.81615862
   0.18263770  0.18217701  0.18217701
   0.18263770  0.18217701  0.68217701
   0.18263770  0.68217701  0.18217701
   0.18263770  0.68217701  0.68217701
   0.68263770  0.18217701  0.18217701
   0.68263770  0.18217701  0.68217701
   0.68263770  0.68217701  0.18217701
   0.68263770  0.68217701  0.68217701
unknown system                          
            1
     7.966121   -0.002818    3.545721
     2.245513    7.894112    3.662334
    -0.126970    0.043606    8.986321
   B    C 
    96    24
Direct configuration=     6
   0.15653779  0.40461708  0.40461708
   0.15653779  0.40461708  0.90461708
   0.15653779  0.90461708  0.40461708
   0.15653779  0.90461708  0.90461708
   0.65653779  0.40461708  0.40461708
   0.65653779  0.40461708  0.90461708
   0.65653779  0.90461708  0.40461708
   0.65653779  0.90461708  0.90461708
   0.40098689  0.40131792  0.15676069
   0.40098689  0.40131792  0.65676069
   0.40098689  0.90131792  0.15676069
   0.40098689  0.90131792  0.65676069
   0.90098689  0.40131792  0.15676069
   0.90098689  0.40131792  0.65676069
   0.90098689  0.90131792  0.15676069
   0.90098689  0.90131792  0.65676069
   0.40098689  0.15676070  0.40131792
   0.40098689  0.15676070  0.90131792
   0.40098689  0.65676070  0.40131792
   0.40098689  0.65676070  0.90131792
   0.90098689  0.15676070  0.40131792
   0.90098689  0.15676070  0.90131792
   0.90098689  0.65676070  0.40131792
   0.90098689  0.65676070  0.90131792
   0.34375212  0.09591465  0.09591465
   0.34375212  0.09591465  0.59591465
   0.34375212  0.59591465  0.09591465
   0.34375212  0.59591465  0.59591465
   0.84375212  0.09591465  0.09591465
   0.84375212  0.09591465  0.59591465
   0.84375212  0.59591465  0.09591465
   0.84375212  0.59591465  0.59591465
   0.09983446  0.09824266  0.34472324
   0.09983446  0.09824266  0.84472324
   0.09983446  0.59824266  0.34472324
   0.09983446  0.59824266  0.84472324
   0.59983446  0.09824266  0.34472324
   0.59983446  0.09824266  0.84472324
   0.59983446  0.59824266  0.34472324
   0.59983446  0.59824266  0.84472324
   0.09983446  0.34472324  0.09824266
   0.09983446  0.34472324  0.59824266
   0.09983446  0.84472324  0.09824266
   0.09983446  0.84472324  0.59824266
   0.59983446  0.34472324  0.09824266
   0.59983446  0.34472324  0.59824266
   0.59983446  0.84472324  0.09824266
   0.59983446  0.84472324  0.59824266
   0.49205834  0.49671583  0.33560610
   0.49205834  0.49671583  0.83560610
   0.49205834  0.99671583  0.33560610
   0.49205834  0.99671583  0.83560610
   0.99205834  0.49671583  0.33560610
   0.99205834  0.49671583  0.83560610
   0.99205834  0.99671583  0.33560610
   0.99205834  0.99671583  0.83560610
   0.49205834  0.33560610  0.49671583
   0.49205834  0.33560610  0.99671583
   0.49205834  0.83560610  0.49671583
   0.49205834  0.83560610  0.99671583
   0.99205834  0.33560610  0.49671583
   0.99205834  0.33560610  0.99671583
   0.99205834  0.83560610  0.49671583
   0.99205834  0.83560610  0.99671583
   0.17030452  0.00493804  0.00493804
   0.17030452  0.00493804  0.50493804
   0.17030452  0.50493804  0.00493804
   0.17030452  0.50493804  0.50493804
   0.67030452  0.00493804  0.00493804
   0.67030452  0.00493804  0.50493804
   0.67030452  0.50493804  0.00493804
   0.67030452  0.50493804  0.50493804
   0.00659054  0.00378356  0.16548843
   0.00659054  0.00378356  0.66548843
   0.00659054  0.50378356  0.16548843
   0.00659054  0.50378356  0.66548843
   0.50659054  0.00378356  0.16548843
   0.50659054  0.00378356  0.66548843
   0.50659054  0.50378356  0.16548843
   0.50659054  0.50378356  0.66548843
   0.00659054  0.16548843  0.00378356
   0.00659054  0.16548843  0.50378356
   0.00659054  0.66548843  0.00378356
   0.00659054  0.66548843  0.50378356
   0.50659054  0.16548843  0.00378356
   0.50659054  0.16548843  0.50378356
   0.50659054  0.66548843  0.00378356
   0.50659054  0.66548843  0.50378356
   0.24564179  0.24814687  0.24814687
   0.24564179  0.24814687  0.74814687
   0.24564179  0.74814687  0.24814687
   0.24564179  0.74814687  0.74814687
   0.74564179  0.24814687  0.24814687
   0.74564179  0.24814687  0.74814687
   0.74564179  0.74814687  0.24814687
   0.74564179  0.74814687  0.74814687
   0.33883595  0.49577115  0.49577115
   0.33883595  0.49577115  0.99577115
   0.33883595  0.99577115  0.49577115
   0.33883595  0.99577115  0.99577115
   0.83883595  0.49577115  0.49577115
   0.83883595  0.49577115  0.99577115
   0.83883595  0.99577115  0.49577115
   0.83883595  0.99577115  0.99577115
   0.31150002  0.31474984  0.31474984
   0.31150002  0.31474984  0.81474984
   0.31150002  0.81474984  0.31474984
   0.31150002  0.81474984  0.81474984
   0.81150002  0.31474984  0.31474984
   0.81150002  0.31474984  0.81474984
   0.81150002  0.81474984  0.31474984
   0.81150002  0.81474984  0.81474984
   0.18448734  0.18322494  0.18322494
   0.18448734  0.18322494  0.68322494
   0.18448734  0.68322494  0.18322494
   0.18448734  0.68322494  0.68322494
   0.68448734  0.18322494  0.18322494
   0.68448734  0.18322494  0.68322494
   0.68448734  0.68322494  0.18322494
   0.68448734  0.68322494  0.68322494
unknown system                          
            1
     7.926029   -0.063171    3.438863
     2.163021    7.906593    3.577546
    -0.227014   -0.001998    8.940923
   B    C 
    96    24
Direct configuration=     7
   0.15618469  0.40496349  0.40496349
   0.15618469  0.40496349  0.90496349
   0.15618469  0.90496349  0.40496349
   0.15618469  0.90496349  0.90496349
   0.65618469  0.40496349  0.40496349
   0.65618469  0.40496349  0.90496349
   0.65618469  0.90496349  0.40496349
   0.65618469  0.90496349  0.90496349
   0.40115482  0.40090749  0.15612730
   0.40115482  0.40090749  0.65612730
   0.40115482  0.90090749  0.15612730
   0.40115482  0.90090749  0.65612730
   0.90115482  0.40090749  0.15612730
   0.90115482  0.40090749  0.65612730
   0.90115482  0.90090749  0.15612730
   0.90115482  0.90090749  0.65612730
   0.40115482  0.15612730  0.40090750
   0.40115482  0.15612730  0.90090750
   0.40115482  0.65612730  0.40090750
   0.40115482  0.65612730  0.90090750
   0.90115482  0.15612730  0.40090750
   0.90115482  0.15612730  0.90090750
   0.90115482  0.65612730  0.40090750