# LAMMPS data file written by OVITO Basic 3.7.6
64 atoms
2 atom types
0.0 8.75912 xlo xhi
0.0 8.75912 ylo yhi
0.0 8.75912 zlo zhi
1.4e-15 6.0e-16 6.0e-16 xy xz yz

Masses

1 28.0855  # Si
2 12.0107  # C

Atoms  # atomic

1 1 1.09489 1.09489 3.28467
2 1 1.09489 3.28467 1.09489
3 1 3.28467 1.09489 1.09489
4 1 3.28467 3.28467 3.28467
5 2 0.0 0.0 0.0
6 2 5.0e-16 2.18978 2.18978
7 2 2.18978 1.5e-16 2.18978
8 2 2.18978 2.18978 -9.8607613153e-32
9 1 1.09489 1.09489 7.66423
10 1 1.09489 3.28467 5.47445
11 1 3.28467 1.09489 5.47445
12 1 3.28467 3.28467 7.66423
13 2 3.0e-16 3.0e-16 4.37956
14 2 8.0e-16 2.18978 6.56934
15 2 2.18978 4.5e-16 6.56934
16 2 2.18978 2.18978 4.37956
17 1 1.09489 5.47445 3.28467
18 1 1.09489 7.66423 1.09489
19 1 3.28467 5.47445 1.09489
20 1 3.28467 7.66423 3.28467
21 2 7.0e-16 4.37956 -9.8607613153e-32
22 2 1.2e-15 6.56934 2.18978
23 2 2.18978 4.37956 2.18978
24 2 2.18978 6.56934 -1.9721522631e-31
25 1 1.09489 5.47445 7.66423
26 1 1.09489 7.66423 5.47445
27 1 3.28467 5.47445 5.47445
28 1 3.28467 7.66423 7.66423
29 2 1.0e-15 4.37956 4.37956
30 2 1.5e-15 6.56934 6.56934
31 2 2.18978 4.37956 6.56934
32 2 2.18978 6.56934 4.37956
33 1 5.47445 1.09489 3.28467
34 1 5.47445 3.28467 1.09489
35 1 7.66423 1.09489 1.09489
36 1 7.66423 3.28467 3.28467
37 2 4.37956 -2.7369110631e-48 -9.8607613153e-32
38 2 4.37956 2.18978 2.18978
39 2 6.56934 1.5e-16 2.18978
40 2 6.56934 2.18978 -1.9721522631e-31
41 1 5.47445 1.09489 7.66423
42 1 5.47445 3.28467 5.47445
43 1 7.66423 1.09489 5.47445
44 1 7.66423 3.28467 7.66423
45 2 4.37956 3.0e-16 4.37956
46 2 4.37956 2.18978 6.56934
47 2 6.56934 4.5e-16 6.56934
48 2 6.56934 2.18978 4.37956
49 1 5.47445 5.47445 3.28467
50 1 5.47445 7.66423 1.09489
51 1 7.66423 5.47445 1.09489
52 1 7.66423 7.66423 3.28467
53 2 4.37956 4.37956 -1.9721522631e-31
54 2 4.37956 6.56934 2.18978
55 2 6.56934 4.37956 2.18978
56 2 6.56934 6.56934 -1.9721522631e-31
57 1 5.47445 5.47445 7.66423
58 1 5.47445 7.66423 5.47445
59 1 7.66423 5.47445 5.47445
60 1 7.66423 7.66423 7.66423
61 2 4.37956 4.37956 4.37956
62 2 4.37956 6.56934 6.56934
63 2 6.56934 4.37956 6.56934
64 2 6.56934 6.56934 4.37956
