 112 112   0   0
  0.7650765E+01  0.1036811E-08  0.1101551E-08  0.1037574E-08  0.5000000E-15
   1.0000000000000000E-004
  CAR 
 unknown system                          
     13.60136890    -11.90438106  301      4.19165402      1.00000000
    -11.904  0.0000E+00  0.0000E+00
    -11.819  0.0000E+00  0.0000E+00
    -11.734  0.0000E+00  0.0000E+00
    -11.649  0.0000E+00  0.0000E+00
    -11.564  0.0000E+00  0.0000E+00
    -11.479  0.0000E+00  0.0000E+00
    -11.394  0.0000E+00  0.0000E+00
    -11.309  0.0000E+00  0.0000E+00
    -11.224  0.0000E+00  0.0000E+00
    -11.139  0.0000E+00  0.0000E+00
    -11.054  0.0000E+00  0.0000E+00
    -10.969  0.0000E+00  0.0000E+00
    -10.884  0.0000E+00  0.0000E+00
    -10.799  0.0000E+00  0.0000E+00
    -10.714  0.3497E-03  0.3604E-05
    -10.629  0.4918E-02  0.1900E-03
    -10.544  0.1478E-01  0.9897E-03
    -10.459  0.5968E-01  0.3260E-02
    -10.374  0.2299E-01  0.1192E-01
    -10.289  0.6649E-02  0.1311E-01
    -10.204  0.1314E-03  0.1333E-01
    -10.119  0.2746E-01  0.1352E-01
    -10.034  0.1092E+00  0.2032E-01
     -9.949  0.1336E+00  0.3122E-01
     -9.864  0.6829E-01  0.3923E-01
     -9.779  0.1210E+00  0.4934E-01
     -9.694  0.0000E+00  0.5333E-01
     -9.609  0.0000E+00  0.5333E-01
     -9.524  0.0000E+00  0.5333E-01
     -9.439  0.0000E+00  0.5333E-01
     -9.354  0.0000E+00  0.5333E-01
     -9.269  0.0000E+00  0.5333E-01
     -9.184  0.0000E+00  0.5333E-01
     -9.099  0.0000E+00  0.5333E-01
     -9.014  0.0000E+00  0.5333E-01
     -8.929  0.0000E+00  0.5333E-01
     -8.844  0.1320E-03  0.5333E-01
     -8.759  0.5637E-02  0.5352E-01
     -8.674  0.1925E-01  0.5452E-01
     -8.589  0.4520E-01  0.5711E-01
     -8.504  0.9514E-01  0.6292E-01
     -8.419  0.1859E+00  0.7495E-01
     -8.334  0.1381E-01  0.8187E-01
     -8.249  0.1815E-01  0.8323E-01
     -8.164  0.2248E-01  0.8496E-01
     -8.079  0.2679E-01  0.8705E-01
     -7.993  0.8358E-01  0.9126E-01
     -7.908  0.5238E-01  0.9803E-01
     -7.823  0.5017E-01  0.1009E+00
     -7.738  0.9056E-01  0.1135E+00
     -7.653  0.7106E-01  0.1204E+00
     -7.568  0.5247E-01  0.1256E+00
     -7.483  0.3479E-01  0.1293E+00
     -7.398  0.1942E-01  0.1316E+00
     -7.313  0.8788E-02  0.1328E+00
     -7.228  0.1818E-01  0.1333E+00
     -7.143  0.9792E-01  0.1387E+00
     -7.058  0.8945E-02  0.1466E+00
     -6.973  0.1012E+00  0.1499E+00
     -6.888  0.3945E-01  0.1564E+00
     -6.803  0.1818E-01  0.1588E+00
     -6.718  0.5651E-02  0.1598E+00
     -6.633  0.3947E-03  0.1600E+00
     -6.548  0.1705E-04  0.1600E+00
     -6.463  0.5726E-01  0.1631E+00
     -6.378  0.6001E-01  0.1682E+00
     -6.293  0.5944E-01  0.1733E+00
     -6.208  0.2374E+00  0.1811E+00
     -6.123  0.2649E-01  0.1872E+00
     -6.038  0.6694E-01  0.1917E+00
     -5.953  0.7157E-01  0.1977E+00
     -5.868  0.2136E+00  0.2072E+00
     -5.783  0.5673E-01  0.2169E+00
     -5.698  0.9442E-01  0.2236E+00
     -5.613  0.7144E-01  0.2311E+00
     -5.528  0.6737E-01  0.2361E+00
     -5.443  0.9815E-01  0.2433E+00
     -5.358  0.9972E-01  0.2519E+00
     -5.273  0.8526E-01  0.2598E+00
     -5.188  0.6881E-01  0.2646E+00
     -5.103  0.5999E-01  0.2711E+00
     -5.018  0.2946E-01  0.2731E+00
     -4.933  0.5501E-01  0.2773E+00
     -4.848  0.2465E-02  0.2800E+00
     -4.763  0.5446E-01  0.2834E+00
     -4.678  0.3107E-01  0.2862E+00
     -4.593  0.1317E+00  0.2963E+00
     -4.508  0.6973E-01  0.3033E+00
     -4.423  0.5690E-01  0.3086E+00
     -4.338  0.4419E-01  0.3129E+00
     -4.253  0.3159E-01  0.3162E+00
     -4.168  0.1912E-01  0.3183E+00
     -4.083  0.7634E-02  0.3194E+00
     -3.998  0.2988E-02  0.3199E+00
     -3.913  0.4821E-03  0.3200E+00
     -3.828  0.1389E-05  0.3200E+00
     -3.743  0.1388E-02  0.3200E+00
     -3.658  0.5474E-02  0.3203E+00
     -3.573  0.1853E-01  0.3213E+00
     -3.487  0.3502E-01  0.3235E+00
     -3.402  0.5255E-01  0.3272E+00
     -3.317  0.7112E-01  0.3325E+00
     -3.232  0.1081E+00  0.3404E+00
     -3.147  0.4766E-01  0.3472E+00
     -3.062  0.2519E-01  0.3504E+00
     -2.977  0.2738E-01  0.3525E+00
     -2.892  0.9805E-01  0.3596E+00
     -2.807  0.7898E-01  0.3656E+00
     -2.722  0.8053E-01  0.3725E+00
     -2.637  0.8913E-01  0.3796E+00
     -2.552  0.8649E-01  0.3873E+00
     -2.467  0.6872E-01  0.3942E+00
     -2.382  0.3540E-01  0.3980E+00
     -2.297  0.1626E+00  0.4062E+00
     -2.212  0.7524E-01  0.4152E+00
     -2.127  0.5153E-01  0.4206E+00
     -2.042  0.1149E+00  0.4278E+00
     -1.957  0.1377E+00  0.4398E+00
     -1.872  0.1807E+00  0.4504E+00
     -1.787  0.1410E+00  0.4660E+00
     -1.702  0.1447E+00  0.4781E+00
     -1.617  0.8850E-01  0.4898E+00
     -1.532  0.1726E-01  0.4929E+00
     -1.447  0.4761E-01  0.4949E+00
     -1.362  0.1229E+00  0.5027E+00
     -1.277  0.1295E+00  0.5139E+00
     -1.192  0.3954E+00  0.5259E+00
     -1.107  0.6111E-01  0.5321E+00
     -1.022  0.5908E-01  0.5372E+00
     -0.937  0.1512E+00  0.5437E+00
     -0.852  0.1632E+00  0.5575E+00
     -0.767  0.1402E+00  0.5704E+00
     -0.682  0.1132E+00  0.5812E+00
     -0.597  0.1523E+00  0.5956E+00
     -0.512  0.2645E-01  0.5994E+00
     -0.427  0.2182E-01  0.6012E+00
     -0.342  0.4123E-01  0.6039E+00
     -0.257  0.5209E-01  0.6079E+00
     -0.172  0.5940E-01  0.6126E+00
     -0.087  0.6464E-01  0.6179E+00
     -0.002  0.6686E-01  0.6235E+00
      0.083  0.6669E-01  0.6300E+00
      0.168  0.4143E-01  0.6329E+00
      0.253  0.6943E-01  0.6371E+00
      0.338  0.9410E-01  0.6455E+00
      0.423  0.1350E+00  0.6539E+00
      0.508  0.2453E+00  0.6729E+00
      0.593  0.2339E+00  0.6955E+00
      0.678  0.1623E+00  0.7068E+00
      0.763  0.9797E-01  0.7159E+00
      0.848  0.1006E+00  0.7240E+00
      0.934  0.9339E-01  0.7324E+00
      1.019  0.9629E-01  0.7399E+00
      1.104  0.8560E-01  0.7509E+00
      1.189  0.1653E+00  0.7630E+00
      1.274  0.1516E+00  0.7830E+00
      1.359  0.1358E+00  0.7886E+00
      1.444  0.3173E+00  0.8137E+00
      1.529  0.1350E+00  0.8348E+00
      1.614  0.8210E-01  0.8428E+00
      1.699  0.7100E-01  0.8492E+00
      1.784  0.6236E-01  0.8549E+00
      1.869  0.5244E-01  0.8598E+00
      1.954  0.3964E-01  0.8638E+00
      2.039  0.1828E-01  0.8662E+00
      2.124  0.1111E+00  0.8700E+00
      2.209  0.3578E+00  0.8940E+00
      2.294  0.3641E+00  0.9259E+00
      2.379  0.2773E+00  0.9513E+00
      2.464  0.1985E+00  0.9631E+00
      2.549  0.1365E+00  0.9788E+00
      2.634  0.1689E+00  0.9875E+00
      2.719  0.6069E-01  0.9960E+00
      2.804  0.2028E+00  0.1008E+01
      2.889  0.2160E+00  0.1027E+01
      2.974  0.2408E+00  0.1053E+01
      3.059  0.1746E+00  0.1065E+01
      3.144  0.1355E+00  0.1079E+01
      3.229  0.8003E-01  0.1088E+01
      3.314  0.1287E+00  0.1102E+01
      3.399  0.1791E-01  0.1106E+01
      3.484  0.1012E-01  0.1107E+01
      3.569  0.8172E-01  0.1110E+01
      3.654  0.2034E+00  0.1121E+01
      3.739  0.5399E-01  0.1137E+01
      3.824  0.1002E+00  0.1143E+01
      3.909  0.1032E+00  0.1152E+01
      3.994  0.6224E-01  0.1160E+01
      4.079  0.4630E-01  0.1164E+01
      4.164  0.1112E+00  0.1171E+01
      4.249  0.6988E-02  0.1174E+01
      4.334  0.9996E-02  0.1175E+01
      4.419  0.1380E-01  0.1176E+01
      4.504  0.1839E-01  0.1177E+01
      4.589  0.2844E-01  0.1179E+01
      4.674  0.4902E-01  0.1183E+01
      4.759  0.1866E-01  0.1186E+01
      4.844  0.0000E+00  0.1187E+01
      4.929  0.0000E+00  0.1187E+01
      5.014  0.0000E+00  0.1187E+01
      5.099  0.2575E-01  0.1187E+01
      5.184  0.2088E+00  0.1198E+01
      5.269  0.1093E+00  0.1208E+01
      5.355  0.1174E+00  0.1218E+01
      5.440  0.3921E-01  0.1227E+01
      5.525  0.0000E+00  0.1227E+01
      5.610  0.1467E-02  0.1227E+01
      5.695  0.1088E-01  0.1227E+01
      5.780  0.3454E-01  0.1229E+01
      5.865  0.4601E-01  0.1233E+01
      5.950  0.4527E-01  0.1237E+01
      6.035  0.3234E-01  0.1240E+01
      6.120  0.8969E-01  0.1247E+01
      6.205  0.6829E-01  0.1252E+01
      6.290  0.7029E-01  0.1258E+01
      6.375  0.7559E-01  0.1263E+01
      6.460  0.4303E-01  0.1273E+01
      6.545  0.2597E-01  0.1276E+01
      6.630  0.1653E-01  0.1278E+01
      6.715  0.9394E-02  0.1279E+01
      6.800  0.4261E-02  0.1280E+01
      6.885  0.1131E-02  0.1280E+01
      6.970  0.4649E-05  0.1280E+01
      7.055  0.0000E+00  0.1280E+01
      7.140  0.0000E+00  0.1280E+01
      7.225  0.0000E+00  0.1280E+01
      7.310  0.0000E+00  0.1280E+01
      7.395  0.0000E+00  0.1280E+01
      7.480  0.0000E+00  0.1280E+01
      7.565  0.0000E+00  0.1280E+01
      7.650  0.0000E+00  0.1280E+01
      7.735  0.0000E+00  0.1280E+01
      7.820  0.0000E+00  0.1280E+01
      7.905  0.0000E+00  0.1280E+01
      7.990  0.0000E+00  0.1280E+01
      8.075  0.1173E-03  0.1280E+01
      8.160  0.1579E-02  0.1280E+01
      8.245  0.4734E-02  0.1280E+01
      8.330  0.9583E-02  0.1281E+01
      8.415  0.1612E-01  0.1282E+01
      8.500  0.2540E-01  0.1284E+01
      8.585  0.4491E-01  0.1287E+01
      8.670  0.2965E-01  0.1290E+01
      8.755  0.2187E-01  0.1292E+01
      8.840  0.7185E-01  0.1296E+01
      8.925  0.9103E-01  0.1303E+01
      9.010  0.7628E-01  0.1311E+01
      9.095  0.5898E-01  0.1316E+01
      9.180  0.6967E-01  0.1322E+01
      9.265  0.6059E-01  0.1327E+01
      9.350  0.3680E-01  0.1331E+01
      9.435  0.3794E-01  0.1334E+01
      9.520  0.5850E-01  0.1338E+01
      9.605  0.3975E+00  0.1346E+01
      9.690  0.7390E-01  0.1363E+01
      9.776  0.4224E-01  0.1366E+01
      9.861  0.5180E-01  0.1370E+01
      9.946  0.5568E-01  0.1375E+01
     10.031  0.4962E-01  0.1379E+01
     10.116  0.1061E+00  0.1385E+01
     10.201  0.1072E+00  0.1390E+01
     10.286  0.2010E+00  0.1408E+01
     10.371  0.7434E-01  0.1417E+01
     10.456  0.1276E+00  0.1427E+01
     10.541  0.9324E-01  0.1433E+01
     10.626  0.2132E-01  0.1442E+01
     10.711  0.2861E-01  0.1444E+01
     10.796  0.3902E-01  0.1447E+01
     10.881  0.4505E-01  0.1451E+01
     10.966  0.4985E-01  0.1455E+01
     11.051  0.5346E-01  0.1459E+01
     11.136  0.5589E-01  0.1464E+01
     11.221  0.5714E-01  0.1468E+01
     11.306  0.5720E-01  0.1473E+01
     11.391  0.5608E-01  0.1478E+01
     11.476  0.4565E-01  0.1483E+01
     11.561  0.5721E-01  0.1489E+01
     11.646  0.1599E+00  0.1500E+01
     11.731  0.7376E-01  0.1507E+01
     11.816  0.6798E-01  0.1513E+01
     11.901  0.7136E-01  0.1518E+01
     11.986  0.7177E-01  0.1525E+01
     12.071  0.3717E-01  0.1529E+01
     12.156  0.3191E-01  0.1532E+01
     12.241  0.1408E+00  0.1537E+01
     12.326  0.4308E-01  0.1547E+01
     12.411  0.5713E-01  0.1553E+01
     12.496  0.0000E+00  0.1553E+01
     12.581  0.0000E+00  0.1553E+01
     12.666  0.0000E+00  0.1553E+01
     12.751  0.0000E+00  0.1553E+01
     12.836  0.0000E+00  0.1553E+01
     12.921  0.0000E+00  0.1553E+01
     13.006  0.0000E+00  0.1553E+01
     13.091  0.0000E+00  0.1553E+01
     13.176  0.0000E+00  0.1553E+01
     13.261  0.0000E+00  0.1553E+01
     13.346  0.0000E+00  0.1553E+01
     13.431  0.0000E+00  0.1553E+01
     13.516  0.0000E+00  0.1553E+01
     13.601  0.0000E+00  0.1553E+01
