[1652891083.539916] [c1107a-s11:164170:0]    ucp_context.c:1075 UCX  ERROR exceeded transports/devices limit (78 requested, up to 64 are supported)
 running on    1 total cores
 distrk:  each k-point on    1 cores,    1 groups
 distr:  one band on    1 cores,    1 groups
 OpenACC runtime initialized ...    1 GPUs detected
 vasp.6.2.0 18Jan21 (build Feb 25 2021 07:51:20) complex                         
 POSCAR found type information on POSCAR B C 
 POSCAR found :  2 types and     112 ions
 scaLAPACK will be used selectively (only on CPU)
 LDA part: xc-table for Pade appr. of Perdew
 -----------------------------------------------------------------------------
|                                                                             |
|           W    W    AA    RRRRR   N    N  II  N    N   GGGG   !!!           |
|           W    W   A  A   R    R  NN   N  II  NN   N  G    G  !!!           |
|           W    W  A    A  R    R  N N  N  II  N N  N  G       !!!           |
|           W WW W  AAAAAA  RRRRR   N  N N  II  N  N N  G  GGG   !            |
|           WW  WW  A    A  R   R   N   NN  II  N   NN  G    G                |
|           W    W  A    A  R    R  N    N  II  N    N   GGGG   !!!           |
|                                                                             |
|     The requested file  could not be found or opened for reading            |
|     k-point information. Automatic k-point generation is used as a          |
|     fallback, which may lead to unwanted results.                           |
|                                                                             |
 -----------------------------------------------------------------------------

 POSCAR, INCAR and KPOINTS ok, starting setup
 FFT: planning ...
 WAVECAR not read
 entering main loop
       N       E                     dE             d eps       ncg     rms          rms(c)
DAV:   1     0.141005930773E+04    0.14101E+04   -0.19844E+05  3728   0.177E+03
DAV:   2    -0.692311713702E+03   -0.21024E+04   -0.19828E+04  4624   0.311E+02
DAV:   3    -0.822777469176E+03   -0.13047E+03   -0.12650E+03  4456   0.682E+01
DAV:   4    -0.825910453130E+03   -0.31330E+01   -0.31116E+01  4392   0.110E+01
DAV:   5    -0.825999790158E+03   -0.89337E-01   -0.89129E-01  4448   0.176E+00    0.405E+01
RMM:   6    -0.785307469215E+03    0.40692E+02   -0.37899E+01  3728   0.933E+00    0.227E+01
RMM:   7    -0.773791960485E+03    0.11516E+02   -0.46375E+01  3728   0.106E+01    0.509E+00
RMM:   8    -0.773856697731E+03   -0.64737E-01   -0.38840E+00  3728   0.406E+00    0.245E+00
RMM:   9    -0.773924458746E+03   -0.67761E-01   -0.71102E-01  3763   0.158E+00    0.929E-01
RMM:  10    -0.773927818699E+03   -0.33600E-02   -0.12724E-01  3732   0.654E-01    0.248E-01
RMM:  11    -0.773931355897E+03   -0.35372E-02   -0.33898E-02  3819   0.295E-01    0.104E-01
RMM:  12    -0.773931969324E+03   -0.61343E-03   -0.60629E-03  3781   0.130E-01    0.558E-02
RMM:  13    -0.773932032250E+03   -0.62926E-04   -0.15852E-03  3806   0.650E-02    0.216E-02
RMM:  14    -0.773932091055E+03   -0.58805E-04   -0.33429E-04  3878   0.294E-02    0.124E-02
RMM:  15    -0.773932102999E+03   -0.11944E-04   -0.84980E-05  3798   0.151E-02    0.299E-03
RMM:  16    -0.773932095913E+03    0.70860E-05   -0.21705E-05  3789   0.751E-03    0.198E-03
RMM:  17    -0.773932097919E+03   -0.20054E-05   -0.36283E-06  2751   0.321E-03    0.664E-04
RMM:  18    -0.773932098283E+03   -0.36406E-06   -0.98476E-07  2373   0.156E-03
   1 F= -.77393210E+03 E0= -.77393210E+03  d E =-.773932E+03
 curvature:   0.00 expect dE= 0.000E+00 dE for cont linesearch  0.000E+00
 trial: gam= 0.00000 g(F)=  0.137E+02 g(S)=  0.408E+02 ort = 0.000E+00 (trialstep = 0.100E+01)
 search vector abs. value=  0.544E+02
 bond charge predicted
 -----------------------------------------------------------------------------
|                                                                             |
|           W    W    AA    RRRRR   N    N  II  N    N   GGGG   !!!           |
|           W    W   A  A   R    R  NN   N  II  NN   N  G    G  !!!           |
|           W    W  A    A  R    R  N N  N  II  N N  N  G       !!!           |
|           W WW W  AAAAAA  RRRRR   N  N N  II  N  N N  G  GGG   !            |
|           WW  WW  A    A  R   R   N   NN  II  N   NN  G    G                |
|           W    W  A    A  R    R  N    N  II  N    N   GGGG   !!!           |
|                                                                             |
|     Tetrahedron method does not include variations of the Fermi             |
|     occupations, so forces and stress will be inaccurate. We suggest        |
|     using a different smearing scheme ISMEAR = 1 or 2 for metals in         |
|     relaxations.                                                            |
|                                                                             |
 -----------------------------------------------------------------------------

       N       E                     dE             d eps       ncg     rms          rms(c)
DAV:   1    -0.793296259284E+03   -0.19364E+02   -0.24278E+03  4029   0.103E+02    0.296E+01
RMM:   2    -0.785344624866E+03    0.79516E+01   -0.10007E+02  3728   0.210E+01    0.139E+01
RMM:   3    -0.780089092192E+03    0.52555E+01   -0.19368E+01  3728   0.879E+00    0.712E+00
RMM:   4    -0.779567555149E+03    0.52154E+00   -0.49543E+00  3747   0.422E+00    0.328E+00
RMM:   5    -0.779601538128E+03   -0.33983E-01   -0.54490E-01  3818   0.149E+00    0.148E+00
RMM:   6    -0.779613640321E+03   -0.12102E-01   -0.13602E-01  3787   0.682E-01    0.250E-01
RMM:   7    -0.779615070011E+03   -0.14297E-02   -0.31618E-02  3751   0.326E-01    0.218E-01
RMM:   8    -0.779615749307E+03   -0.67930E-03   -0.78183E-03  3902   0.157E-01    0.464E-02
RMM:   9    -0.779615842995E+03   -0.93689E-04   -0.16757E-03  3760   0.726E-02    0.208E-02
RMM:  10    -0.779615871859E+03   -0.28864E-04   -0.35223E-04  3859   0.335E-02    0.781E-03
RMM:  11    -0.779615877075E+03   -0.52161E-05   -0.97834E-05  3780   0.167E-02    0.507E-03
RMM:  12    -0.779615878527E+03   -0.14516E-05   -0.18192E-05  3577   0.751E-03    0.240E-03
RMM:  13    -0.779615879048E+03   -0.52099E-06   -0.49348E-06  2874   0.363E-03
   2 F= -.77961588E+03 E0= -.77961588E+03  d E =-.568378E+01
 trial-energy change:   -5.683781  1 .order   -6.016195  -54.433951   42.401561
 step:   0.5570(harm=  0.5621)  dis= 0.05425  next Energy=  -789.035743 (dE=-0.151E+02)
 bond charge predicted
 -----------------------------------------------------------------------------
|                                                                             |
|           W    W    AA    RRRRR   N    N  II  N    N   GGGG   !!!           |
|           W    W   A  A   R    R  NN   N  II  NN   N  G    G  !!!           |
|           W    W  A    A  R    R  N N  N  II  N N  N  G       !!!           |
|           W WW W  AAAAAA  RRRRR   N  N N  II  N  N N  G  GGG   !            |
|           WW  WW  A    A  R   R   N   NN  II  N   NN  G    G                |
|           W    W  A    A  R    R  N    N  II  N    N   GGGG   !!!           |
|                                                                             |
|     Tetrahedron method does not include variations of the Fermi             |
|     occupations, so forces and stress will be inaccurate. We suggest        |
|     using a different smearing scheme ISMEAR = 1 or 2 for metals in         |
|     relaxations.                                                            |
|                                                                             |
 -----------------------------------------------------------------------------

       N       E                     dE             d eps       ncg     rms          rms(c)
DAV:   1    -0.791778855882E+03   -0.12163E+02   -0.48907E+02  3970   0.462E+01    0.115E+01
RMM:   2    -0.789927022785E+03    0.18518E+01   -0.16356E+01  3728   0.859E+00    0.609E+00
RMM:   3    -0.788801547846E+03    0.11255E+01   -0.44050E+00  3734   0.398E+00    0.171E+00
RMM:   4    -0.788818532691E+03   -0.16985E-01   -0.55876E-01  3750   0.155E+00    0.116E+00
RMM:   5    -0.788822738878E+03   -0.42062E-02   -0.91409E-02  3781   0.613E-01    0.382E-01
RMM:   6    -0.788823487469E+03   -0.74859E-03   -0.20975E-02  3779   0.276E-01    0.307E-01
RMM:   7    -0.788823910244E+03   -0.42278E-03   -0.39104E-03  3781   0.124E-01    0.379E-02
RMM:   8    -0.788823970333E+03   -0.60089E-04   -0.12674E-03  3785   0.627E-02    0.603E-02
RMM:   9    -0.788823989180E+03   -0.18847E-04   -0.24337E-04  3788   0.292E-02    0.252E-02
RMM:  10    -0.788823993823E+03   -0.46429E-05   -0.60362E-05  3856   0.136E-02    0.327E-03
RMM:  11    -0.788823995003E+03   -0.11796E-05   -0.11503E-05  3414   0.599E-03    0.614E-03
RMM:  12    -0.788823995187E+03   -0.18438E-06   -0.24586E-06  2604   0.282E-03
   3 F= -.78882400E+03 E0= -.78882400E+03  d E =-.148919E+02
 curvature:  -0.28 expect dE=-0.470E+01 dE for cont linesearch -0.355E-03
 trial: gam= 0.30228 g(F)=  0.137E+02 g(S)=  0.306E+01 ort = 0.262E+00 (trialstep = 0.911E+00)
 search vector abs. value=  0.218E+02
 bond charge predicted
       N       E                     dE             d eps       ncg     rms          rms(c)
DAV:   1    -0.790883604683E+03   -0.20596E+01   -0.66921E+02  4149   0.563E+01    0.930E+00
RMM:   2    -0.790299143611E+03    0.58446E+00   -0.16307E+01  3728   0.828E+00    0.516E+00
RMM:   3    -0.789904025979E+03    0.39512E+00   -0.26627E+00  3733   0.320E+00    0.242E+00
RMM:   4    -0.789865664666E+03    0.38361E-01   -0.62560E-01  3748   0.143E+00    0.869E-01
RMM:   5    -0.789870572152E+03   -0.49075E-02   -0.92325E-02  3821   0.581E-01    0.286E-01
RMM:   6    -0.789871595043E+03   -0.10229E-02   -0.19890E-02  3818   0.258E-01    0.128E-01
RMM:   7    -0.789871913512E+03   -0.31847E-03   -0.41592E-03  3845   0.117E-01    0.319E-02
RMM:   8    -0.789872301250E+03   -0.38774E-03   -0.99934E-04  3895   0.540E-02    0.189E-02
RMM:   9    -0.789872146351E+03    0.15490E-03   -0.20019E-04  3809   0.248E-02    0.598E-03
RMM:  10    -0.789872133518E+03    0.12833E-04   -0.46573E-05  3752   0.115E-02    0.480E-03
RMM:  11    -0.789872180999E+03   -0.47481E-04   -0.12518E-05  3247   0.592E-03    0.363E-03
RMM:  12    -0.789872169670E+03    0.11328E-04   -0.30428E-06  2670   0.291E-03    0.205E-03
RMM:  13    -0.789872159067E+03    0.10603E-04   -0.74482E-07  2304   0.146E-03    0.430E-04
RMM:  14    -0.789872159162E+03   -0.94815E-07   -0.15440E-07  1739   0.700E-04
   4 F= -.78987216E+03 E0= -.78987216E+03  d E =-.104816E+01
 trial-energy change:   -1.048164  1 .order   -1.407598  -15.307826   12.492630
 step:   0.4842(harm=  0.5019)  dis= 0.03690  next Energy=  -792.836721 (dE=-0.401E+01)
 bond charge predicted
 -----------------------------------------------------------------------------
|                                                                             |
|           W    W    AA    RRRRR   N    N  II  N    N   GGGG   !!!           |
|           W    W   A  A   R    R  NN   N  II  NN   N  G    G  !!!           |
|           W    W  A    A  R    R  N N  N  II  N N  N  G       !!!           |
|           W WW W  AAAAAA  RRRRR   N  N N  II  N  N N  G  GGG   !            |
|           WW  WW  A    A  R   R   N   NN  II  N   NN  G    G                |
|           W    W  A    A  R    R  N    N  II  N    N   GGGG   !!!           |
|                                                                             |
|     Tetrahedron method does not include variations of the Fermi             |
|     occupations, so forces and stress will be inaccurate. We suggest        |
|     using a different smearing scheme ISMEAR = 1 or 2 for metals in         |
|     relaxations.                                                            |
|                                                                             |
 -----------------------------------------------------------------------------

       N       E                     dE             d eps       ncg     rms          rms(c)
DAV:   1    -0.793228201579E+03   -0.33560E+01   -0.14719E+02  4075   0.262E+01    0.431E+00
RMM:   2    -0.792972914925E+03    0.25529E+00   -0.28643E+00  3728   0.360E+00    0.243E+00
RMM:   3    -0.792868391310E+03    0.10452E+00   -0.65050E-01  3728   0.151E+00    0.835E-01
RMM:   4    -0.792869153923E+03   -0.76261E-03   -0.11330E-01  3781   0.624E-01    0.391E-01
RMM:   5    -0.792870283587E+03   -0.11297E-02   -0.17872E-02  3771   0.264E-01    0.972E-02
RMM:   6    -0.792870130141E+03    0.15345E-03   -0.42377E-03  3804   0.117E-01    0.723E-02
RMM:   7    -0.792870678028E+03   -0.54789E-03   -0.79640E-04  3805   0.534E-02    0.211E-02
RMM:   8    -0.792870628586E+03    0.49442E-04   -0.20327E-04  3901   0.242E-02    0.737E-03
RMM:   9    -0.792870633731E+03   -0.51450E-05   -0.39418E-05  3754   0.110E-02    0.458E-03
RMM:  10    -0.792870646012E+03   -0.12281E-04   -0.90772E-06  3151   0.508E-03    0.141E-03
RMM:  11    -0.792870638429E+03    0.75826E-05   -0.22331E-06  2586   0.252E-03    0.111E-03
RMM:  12    -0.792870642433E+03   -0.40036E-05   -0.51752E-07  2242   0.124E-03    0.238E-04
RMM:  13    -0.792870644330E+03   -0.18971E-05   -0.11694E-07  1634   0.636E-04    0.136E-04
RMM:  14    -0.792870643681E+03    0.64822E-06   -0.22842E-08  1154   0.413E-04
   5 F= -.79287064E+03 E0= -.79287064E+03  d E =-.404665E+01
 curvature:  -0.33 expect dE=-0.435E+00 dE for cont linesearch -0.110E-04
 trial: gam= 0.05590 g(F)=  0.126E+01 g(S)=  0.753E-01 ort = 0.271E-01 (trialstep = 0.826E+00)
 search vector abs. value=  0.141E+01
 bond charge predicted
 -----------------------------------------------------------------------------
|                                                                             |
|           W    W    AA    RRRRR   N    N  II  N    N   GGGG   !!!           |
|           W    W   A  A   R    R  NN   N  II  NN   N  G    G  !!!           |
|           W    W  A    A  R    R  N N  N  II  N N  N  G       !!!           |
|           W WW W  AAAAAA  RRRRR   N  N N  II  N  N N  G  GGG   !            |
|           WW  WW  A    A  R   R   N   NN  II  N   NN  G    G                |
|           W    W  A    A  R    R  N    N  II  N    N   GGGG   !!!           |
|                                                                             |
|     Tetrahedron method does not include variations of the Fermi             |
|     occupations, so forces and stress will be inaccurate. We suggest        |
|     using a different smearing scheme ISMEAR = 1 or 2 for metals in         |
|     relaxations.                                                            |
|                                                                             |
 -----------------------------------------------------------------------------

       N       E                     dE             d eps       ncg     rms          rms(c)
DAV:   1    -0.793606382266E+03   -0.73574E+00   -0.40655E+01  3929   0.135E+01    0.202E+00
RMM:   2    -0.793487307492E+03    0.11907E+00   -0.94617E-01  3728   0.214E+00    0.994E-01
RMM:   3    -0.793464294934E+03    0.23013E-01   -0.20598E-01  3730   0.848E-01    0.376E-01
RMM:   4    -0.793464035149E+03    0.25978E-03   -0.28426E-02  3759   0.332E-01    0.173E-01
RMM:   5    -0.793463601531E+03    0.43362E-03   -0.54607E-03  3769   0.143E-01    0.425E-02
RMM:   6    -0.793463785986E+03   -0.18445E-03   -0.10748E-03  3816   0.611E-02    0.240E-02
RMM:   7    -0.793463924890E+03   -0.13890E-03   -0.22742E-04  3786   0.284E-02    0.787E-03
RMM:   8    -0.793463928649E+03   -0.37590E-05   -0.48859E-05  3817   0.123E-02    0.303E-03
RMM:   9    -0.793463938966E+03   -0.10317E-04   -0.11201E-05  3328   0.578E-03    0.132E-03
RMM:  10    -0.793463941199E+03   -0.22325E-05   -0.21955E-06  2567   0.256E-03    0.514E-04
RMM:  11    -0.793463937697E+03    0.35014E-05   -0.57984E-07  2234   0.128E-03    0.203E-04
RMM:  12    -0.793463939279E+03   -0.15820E-05   -0.12101E-07  1642   0.641E-04    0.793E-05
RMM:  13    -0.793463939153E+03    0.12600E-06   -0.21179E-08  1143   0.420E-04
   6 F= -.79346394E+03 E0= -.79346394E+03  d E =-.593295E+00
 trial-energy change:   -0.593295  1 .order   -0.524165   -1.104544    0.056214
 step:   0.7962(harm=  0.7860)  dis= 0.02150  next Energy=  -793.464948 (dE=-0.594E+00)
 bond charge predicted
 -----------------------------------------------------------------------------
|                                                                             |
|           W    W    AA    RRRRR   N    N  II  N    N   GGGG   !!!           |
|           W    W   A  A   R    R  NN   N  II  NN   N  G    G  !!!           |
|           W    W  A    A  R    R  N N  N  II  N N  N  G       !!!           |
|           W WW W  AAAAAA  RRRRR   N  N N  II  N  N N  G  GGG   !            |
|           WW  WW  A    A  R   R   N   NN  II  N   NN  G    G                |
|           W    W  A    A  R    R  N    N  II  N    N   GGGG   !!!           |
|                                                                             |
|     Tetrahedron method does not include variations of the Fermi             |
|     occupations, so forces and stress will be inaccurate. We suggest        |
|     using a different smearing scheme ISMEAR = 1 or 2 for metals in         |
|     relaxations.                                                            |
|                                                                             |
 -----------------------------------------------------------------------------

       N       E                     dE             d eps       ncg     rms          rms(c)
DAV:   1    -0.793460427235E+03    0.35120E-02   -0.52693E-02  4120   0.484E-01    0.732E-02
RMM:   2    -0.793461448517E+03   -0.10213E-02   -0.11986E-03  3728   0.762E-02    0.358E-02
RMM:   3    -0.793461619581E+03   -0.17106E-03   -0.25507E-04  3730   0.302E-02    0.136E-02
RMM:   4    -0.793461651115E+03   -0.31535E-04   -0.38748E-05  3748   0.120E-02    0.594E-03
RMM:   5    -0.793461671101E+03   -0.19986E-04   -0.67984E-06  3582   0.510E-03    0.127E-03
RMM:   6    -0.793461667220E+03    0.38811E-05   -0.13537E-06  2343   0.216E-03    0.844E-04
RMM:   7    -0.793461662478E+03    0.47416E-05   -0.27263E-07  2239   0.952E-04    0.246E-04
RMM:   8    -0.793461662263E+03    0.21556E-06   -0.45496E-08  1256   0.468E-04
   7 F= -.79346166E+03 E0= -.79346166E+03  d E =-.591019E+00
 curvature:  -0.39 expect dE=-0.176E+00 dE for cont linesearch -0.965E-04
 trial: gam= 0.35711 g(F)=  0.376E+00 g(S)=  0.800E-01 ort =-0.187E-01 (trialstep = 0.820E+00)
 search vector abs. value=  0.622E+00
 bond charge predicted
 -----------------------------------------------------------------------------
|                                                                             |
|           W    W    AA    RRRRR   N    N  II  N    N   GGGG   !!!           |
|           W    W   A  A   R    R  NN   N  II  NN   N  G    G  !!!           |
|           W    W  A    A  R    R  N N  N  II  N N  N  G       !!!           |
|           W WW W  AAAAAA  RRRRR   N  N N  II  N  N N  G  GGG   !            |
|           WW  WW  A    A  R   R   N   NN  II  N   NN  G    G                |
|           W    W  A    A  R    R  N    N  II  N    N   GGGG   !!!           |
|                                                                             |
|     Tetrahedron method does not include variations of the Fermi             |
|     occupations, so forces and stress will be inaccurate. We suggest        |
|     using a different smearing scheme ISMEAR = 1 or 2 for metals in         |
|     relaxations.                                                            |
|                                                                             |
 -----------------------------------------------------------------------------

       N       E                     dE             d eps       ncg     rms          rms(c)
DAV:   1    -0.793706415086E+03   -0.24475E+00   -0.17240E+01  3810   0.896E+00    0.120E+00
RMM:   2    -0.793693485436E+03    0.12930E-01   -0.35146E-01  3728   0.132E+00    0.648E-01
RMM:   3    -0.793688769994E+03    0.47154E-02   -0.68173E-02  3738   0.505E-01    0.287E-01
RMM:   4    -0.793688817368E+03   -0.47374E-04   -0.12104E-02  3766   0.212E-01    0.120E-01
RMM:   5    -0.793688669560E+03    0.14781E-03   -0.22089E-03  3801   0.934E-02    0.254E-02
RMM:   6    -0.793688834365E+03   -0.16480E-03   -0.43258E-04  3792   0.391E-02    0.167E-02
RMM:   7    -0.793688667992E+03    0.16637E-03   -0.89830E-05  3769   0.185E-02    0.449E-03
RMM:   8    -0.793688739882E+03   -0.71890E-04   -0.22168E-05  3737   0.811E-03    0.246E-03
RMM:   9    -0.793688729084E+03    0.10798E-04   -0.44621E-06  2861   0.382E-03    0.777E-04
RMM:  10    -0.793688723093E+03    0.59913E-05   -0.10844E-06  2357   0.174E-03    0.317E-04
RMM:  11    -0.793688723244E+03   -0.15041E-06   -0.24283E-07  1993   0.849E-04
   8 F= -.79368872E+03 E0= -.79368872E+03  d E =-.227061E+00
 trial-energy change:   -0.227061  1 .order   -0.220358   -0.368623   -0.072094
 step:   0.9913(harm=  1.0194)  dis= 0.01831  next Energy=  -793.696314 (dE=-0.235E+00)
 bond charge predicted
 -----------------------------------------------------------------------------
|                                                                             |
|           W    W    AA    RRRRR   N    N  II  N    N   GGGG   !!!           |
|           W    W   A  A   R    R  NN   N  II  NN   N  G    G  !!!           |
|           W    W  A    A  R    R  N N  N  II  N N  N  G       !!!           |
|           W WW W  AAAAAA  RRRRR   N  N N  II  N  N N  G  GGG   !            |
|           WW  WW  A    A  R   R   N   NN  II  N   NN  G    G                |
|           W    W  A    A  R    R  N    N  II  N    N   GGGG   !!!           |
|                                                                             |
|     Tetrahedron method does not include variations of the Fermi             |
|     occupations, so forces and stress will be inaccurate. We suggest        |
|     using a different smearing scheme ISMEAR = 1 or 2 for metals in         |
|     relaxations.                                                            |
|                                                                             |
 -----------------------------------------------------------------------------

       N       E                     dE             d eps       ncg     rms          rms(c)
DAV:   1    -0.793696882455E+03   -0.81594E-02   -0.75496E-01  4008   0.187E+00    0.250E-01
RMM:   2    -0.793699298377E+03   -0.24159E-02   -0.15482E-02  3728   0.276E-01    0.135E-01
RMM:   3    -0.793698946566E+03    0.35181E-03   -0.29540E-03  3738   0.106E-01    0.598E-02
RMM:   4    -0.793698915444E+03    0.31123E-04   -0.54526E-04  3770   0.447E-02    0.247E-02
RMM:   5    -0.793698864288E+03    0.51156E-04   -0.93702E-05  3794   0.194E-02    0.518E-03
RMM:   6    -0.793698898179E+03   -0.33892E-04   -0.19402E-05  3740   0.817E-03    0.343E-03
RMM:   7    -0.793698862277E+03    0.35902E-04   -0.38505E-06  2838   0.384E-03    0.959E-04
RMM:   8    -0.793698875888E+03   -0.13611E-04   -0.90730E-07  2315   0.168E-03    0.490E-04
RMM:   9    -0.793698874517E+03    0.13708E-05   -0.20769E-07  2048   0.810E-04    0.143E-04
RMM:  10    -0.793698873064E+03    0.14531E-05   -0.37284E-08  1245   0.454E-04    0.559E-05
RMM:  11    -0.793698872899E+03    0.16491E-06   -0.99182E-10   835   0.357E-04
   9 F= -.79369887E+03 E0= -.79369887E+03  d E =-.237211E+00
 curvature:  -0.69 expect dE=-0.135E+00 dE for cont linesearch -0.133E-03
 trial: gam= 0.36202 g(F)=  0.155E+00 g(S)=  0.400E-01 ort = 0.109E-01 (trialstep = 0.854E+00)
 search vector abs. value=  0.284E+00
 bond charge predicted
 -----------------------------------------------------------------------------
|                                                                             |
|           W    W    AA    RRRRR   N    N  II  N    N   GGGG   !!!           |
|           W    W   A  A   R    R  NN   N  II  NN   N  G    G  !!!           |
|           W    W  A    A  R    R  N N  N  II  N N  N  G       !!!           |
|           W WW W  AAAAAA  RRRRR   N  N N  II  N  N N  G  GGG   !            |
|           WW  WW  A    A  R   R   N   NN  II  N   NN  G    G                |
|           W    W  A    A  R    R  N    N  II  N    N   GGGG   !!!           |
|                                                                             |
|     Tetrahedron method does not include variations of the Fermi             |
|     occupations, so forces and stress will be inaccurate. We suggest        |
|     using a different smearing scheme ISMEAR = 1 or 2 for metals in         |
|     relaxations.                                                            |
|                                                                             |
 -----------------------------------------------------------------------------

       N       E                     dE             d eps       ncg     rms          rms(c)
DAV:   1    -0.793759220555E+03   -0.60347E-01   -0.12322E+01  3797   0.760E+00    0.959E-01
RMM:   2    -0.793756315403E+03    0.29052E-02   -0.17376E-01  3728   0.891E-01    0.547E-01
RMM:   3    -0.793758343358E+03   -0.20280E-02   -0.45957E-02  3728   0.382E-01    0.171E-01
RMM:   4    -0.793758096680E+03    0.24668E-03   -0.49026E-03  3790   0.142E-01    0.938E-02
RMM:   5    -0.793758430388E+03   -0.33371E-03   -0.13157E-03  3791   0.666E-02    0.229E-02
RMM:   6    -0.793758435847E+03   -0.54588E-05   -0.23426E-04  3786   0.271E-02    0.148E-02
RMM:   7    -0.793758388514E+03    0.47333E-04   -0.47425E-05  3771   0.128E-02    0.336E-03
RMM:   8    -0.793758382962E+03    0.55520E-05   -0.93758E-06  3394   0.534E-03    0.160E-03
RMM:   9    -0.793758389941E+03   -0.69795E-05   -0.21008E-06  2530   0.247E-03    0.582E-04
RMM:  10    -0.793758390597E+03   -0.65601E-06   -0.41109E-07  2222   0.111E-03
  10 F= -.79375839E+03 E0= -.79375839E+03  d E =-.595177E-01
 trial-energy change:   -0.059518  1 .order   -0.071078   -0.169853    0.027698
 step:   0.6874(harm=  0.7345)  dis= 0.01179  next Energy=  -793.761183 (dE=-0.623E-01)
 bond charge predicted
 -----------------------------------------------------------------------------
|                                                                             |
|           W    W    AA    RRRRR   N    N  II  N    N   GGGG   !!!           |
|           W    W   A  A   R    R  NN   N  II  NN   N  G    G  !!!           |
|           W    W  A    A  R    R  N N  N  II  N N  N  G       !!!           |
|           W WW W  AAAAAA  RRRRR   N  N N  II  N  N N  G  GGG   !            |
|           WW  WW  A    A  R   R   N   NN  II  N   NN  G    G                |
|           W    W  A    A  R    R  N    N  II  N    N   GGGG   !!!           |
|                                                                             |
|     Tetrahedron method does not include variations of the Fermi             |
|     occupations, so forces and stress will be inaccurate. We suggest        |
|     using a different smearing scheme ISMEAR = 1 or 2 for metals in         |
|     relaxations.                                                            |
|                                                                             |
 -----------------------------------------------------------------------------

       N       E                     dE             d eps       ncg     rms          rms(c)
DAV:   1    -0.793763473361E+03   -0.50834E-02   -0.47096E-01  3902   0.148E+00    0.187E-01
RMM:   2    -0.793762888933E+03    0.58443E-03   -0.66530E-03  3728   0.174E-01    0.107E-01
RMM:   3    -0.793762280321E+03    0.60861E-03   -0.16963E-03  3729   0.739E-02    0.325E-02
RMM:   4    -0.793762296594E+03   -0.16273E-04   -0.18941E-04  3801   0.276E-02    0.164E-02
RMM:   5    -0.793762247840E+03    0.48754E-04   -0.46885E-05  3767   0.129E-02    0.362E-03
RMM:   6    -0.793762263086E+03   -0.15246E-04   -0.83210E-06  3405   0.516E-03    0.230E-03
RMM:   7    -0.793762270700E+03   -0.76139E-05   -0.17794E-06  2443   0.243E-03    0.556E-04
RMM:   8    -0.793762271224E+03   -0.52464E-06   -0.32144E-07  2274   0.995E-04
  11 F= -.79376227E+03 E0= -.79376227E+03  d E =-.633983E-01
 curvature:  -0.44 expect dE=-0.340E-01 dE for cont linesearch -0.221E-03
 trial: gam= 0.35043 g(F)=  0.645E-01 g(S)=  0.122E-01 ort = 0.119E-01 (trialstep = 0.821E+00)
 search vector abs. value=  0.120E+00
 bond charge predicted
 -----------------------------------------------------------------------------
|                                                                             |
|           W    W    AA    RRRRR   N    N  II  N    N   GGGG   !!!           |
|           W    W   A  A   R    R  NN   N  II  NN   N  G    G  !!!           |
|           W    W  A    A  R    R  N N  N  II  N N  N  G       !!!           |
|           W WW W  AAAAAA  RRRRR   N  N N  II  N  N N  G  GGG   !            |
|           WW  WW  A    A  R   R   N   NN  II  N   NN  G    G                |
|           W    W  A    A  R    R  N    N  II  N    N   GGGG   !!!           |
|                                                                             |
|     Tetrahedron method does not include variations of the Fermi             |
|     occupations, so forces and stress will be inaccurate. We suggest        |
|     using a different smearing scheme ISMEAR = 1 or 2 for metals in         |
|     relaxations.                                                            |
|                                                                             |
 -----------------------------------------------------------------------------

       N       E                     dE             d eps       ncg     rms          rms(c)
DAV:   1    -0.793814233702E+03   -0.51963E-01   -0.30274E+00  3790   0.383E+00    0.580E-01
RMM:   2    -0.793802272309E+03    0.11961E-01   -0.55095E-02  3728   0.508E-01    0.317E-01
RMM:   3    -0.793801088903E+03    0.11834E-02   -0.10787E-02  3728   0.206E-01    0.125E-01
RMM:   4    -0.793801030503E+03    0.58399E-04   -0.23609E-03  3766   0.908E-02    0.386E-02
RMM:   5    -0.793801142196E+03   -0.11169E-03   -0.33653E-04  3808   0.363E-02    0.141E-02
RMM:   6    -0.793801139822E+03    0.23734E-05   -0.78525E-05  3786   0.164E-02    0.541E-03
RMM:   7    -0.793801167684E+03   -0.27862E-04   -0.16392E-05  3680   0.757E-03    0.147E-03
RMM:   8    -0.793801159791E+03    0.78937E-05   -0.36559E-06  2768   0.341E-03    0.786E-04
RMM:   9    -0.793801164904E+03   -0.51139E-05   -0.79641E-07  2309   0.157E-03    0.211E-04
RMM:  10    -0.793801162056E+03    0.28483E-05   -0.17872E-07  1916   0.759E-04    0.124E-04
RMM:  11    -0.793801162624E+03   -0.56802E-06   -0.31720E-08  1213   0.446E-04
  12 F= -.79380116E+03 E0= -.79380116E+03  d E =-.388914E-01
 trial-energy change:   -0.038891  1 .order   -0.032668   -0.066401    0.001066
 step:   0.8125(harm=  0.8079)  dis= 0.00462  next Energy=  -793.801168 (dE=-0.389E-01)
 bond charge predicted
 -----------------------------------------------------------------------------
|                                                                             |
|           W    W    AA    RRRRR   N    N  II  N    N   GGGG   !!!           |
|           W    W   A  A   R    R  NN   N  II  NN   N  G    G  !!!           |
|           W    W  A    A  R    R  N N  N  II  N N  N  G       !!!           |
|           W WW W  AAAAAA  RRRRR   N  N N  II  N  N N  G  GGG   !            |
|           WW  WW  A    A  R   R   N   NN  II  N   NN  G    G                |
|           W    W  A    A  R    R  N    N  II  N    N   GGGG   !!!           |
|                                                                             |
|     Tetrahedron method does not include variations of the Fermi             |
|     occupations, so forces and stress will be inaccurate. We suggest        |
|     using a different smearing scheme ISMEAR = 1 or 2 for metals in         |
|     relaxations.                                                            |
|                                                                             |
 -----------------------------------------------------------------------------

       N       E                     dE             d eps       ncg     rms          rms(c)
DAV:   1    -0.793801035678E+03    0.12638E-03   -0.31242E-04  4085   0.391E-02    0.582E-03
RMM:   2    -0.793801111467E+03   -0.75789E-04   -0.56876E-06  3423   0.516E-03    0.314E-03
RMM:   3    -0.793801110038E+03    0.14288E-05   -0.10752E-06  2159   0.206E-03    0.124E-03
RMM:   4    -0.793801110139E+03   -0.10080E-06   -0.18624E-07  2086   0.823E-04
  13 F= -.79380111E+03 E0= -.79380111E+03  d E =-.388389E-01
 curvature:  -0.52 expect dE=-0.112E-01 dE for cont linesearch -0.853E-06
 trial: gam= 0.36221 g(F)=  0.207E-01 g(S)=  0.605E-03 ort =-0.442E-03 (trialstep = 0.819E+00)
 search vector abs. value=  0.367E-01
 bond charge predicted
 -----------------------------------------------------------------------------
|                                                                             |
|           W    W    AA    RRRRR   N    N  II  N    N   GGGG   !!!           |
|           W    W   A  A   R    R  NN   N  II  NN   N  G    G  !!!           |
|           W    W  A    A  R    R  N N  N  II  N N  N  G       !!!           |
|           W WW W  AAAAAA  RRRRR   N  N N  II  N  N N  G  GGG   !            |
|           WW  WW  A    A  R   R   N   NN  II  N   NN  G    G                |
|           W    W  A    A  R    R  N    N  II  N    N   GGGG   !!!           |
|                                                                             |
|     Tetrahedron method does not include variations of the Fermi             |
|     occupations, so forces and stress will be inaccurate. We suggest        |
|     using a different smearing scheme ISMEAR = 1 or 2 for metals in         |
|     relaxations.                                                            |
|                                                                             |
 -----------------------------------------------------------------------------

       N       E                     dE             d eps       ncg     rms          rms(c)
DAV:   1    -0.793815991426E+03   -0.14881E-01   -0.10619E+00  3820   0.228E+00    0.274E-01
RMM:   2    -0.793815020083E+03    0.97134E-03   -0.14061E-02  3728   0.259E-01    0.152E-01
RMM:   3    -0.793814174102E+03    0.84598E-03   -0.28012E-03  3729   0.101E-01    0.517E-02
RMM:   4    -0.793814149489E+03    0.24613E-04   -0.38876E-04  3821   0.382E-02    0.184E-02
RMM:   5    -0.793814083204E+03    0.66285E-04   -0.73279E-05  3780   0.165E-02    0.538E-03
RMM:   6    -0.793814139151E+03   -0.55948E-04   -0.13806E-05  3693   0.682E-03    0.272E-03
RMM:   7    -0.793814141758E+03   -0.26068E-05   -0.34196E-06  2746   0.330E-03    0.923E-04
RMM:   8    -0.793814141371E+03    0.38667E-06   -0.66185E-07  2308   0.140E-03
  14 F= -.79381414E+03 E0= -.79381414E+03  d E =-.130312E-01
 trial-energy change:   -0.013031  1 .order   -0.009792   -0.017315   -0.002269
 step:   0.8713(harm=  0.9428)  dis= 0.00358  next Energy=  -793.814214 (dE=-0.131E-01)
 bond charge predicted
 -----------------------------------------------------------------------------
|                                                                             |
|           W    W    AA    RRRRR   N    N  II  N    N   GGGG   !!!           |
|           W    W   A  A   R    R  NN   N  II  NN   N  G    G  !!!           |
|           W    W  A    A  R    R  N N  N  II  N N  N  G       !!!           |
|           W WW W  AAAAAA  RRRRR   N  N N  II  N  N N  G  GGG   !            |
|           WW  WW  A    A  R   R   N   NN  II  N   NN  G    G                |
|           W    W  A    A  R    R  N    N  II  N    N   GGGG   !!!           |
|                                                                             |
|     Tetrahedron method does not include variations of the Fermi             |
|     occupations, so forces and stress will be inaccurate. We suggest        |
|     using a different smearing scheme ISMEAR = 1 or 2 for metals in         |
|     relaxations.                                                            |
|                                                                             |
 -----------------------------------------------------------------------------

       N       E                     dE             d eps       ncg     rms          rms(c)
DAV:   1    -0.793814571517E+03   -0.42976E-03   -0.42879E-03  4280   0.145E-01    0.173E-02
RMM:   2    -0.793814513348E+03    0.58169E-04   -0.56752E-05  3728   0.165E-02    0.966E-03
RMM:   3    -0.793814462800E+03    0.50548E-04   -0.11302E-05  3729   0.640E-03    0.322E-03
RMM:   4    -0.793814460000E+03    0.27998E-05   -0.15585E-06  2383   0.243E-03    0.116E-03
RMM:   5    -0.793814455640E+03    0.43600E-05   -0.27815E-07  2233   0.988E-04    0.334E-04
RMM:   6    -0.793814459296E+03   -0.36554E-05   -0.50869E-08  1297   0.480E-04    0.152E-04
RMM:   7    -0.793814459841E+03   -0.54507E-06   -0.35108E-09   738   0.364E-04
  15 F= -.79381446E+03 E0= -.79381446E+03  d E =-.133497E-01
 curvature:  -0.54 expect dE=-0.566E-02 dE for cont linesearch -0.381E-04
 trial: gam= 0.40235 g(F)=  0.984E-02 g(S)=  0.549E-03 ort = 0.160E-02 (trialstep = 0.830E+00)
 search vector abs. value=  0.176E-01
 bond charge predicted
 -----------------------------------------------------------------------------
|                                                                             |
|           W    W    AA    RRRRR   N    N  II  N    N   GGGG   !!!           |
|           W    W   A  A   R    R  NN   N  II  NN   N  G    G  !!!           |
|           W    W  A    A  R    R  N N  N  II  N N  N  G       !!!           |
|           W WW W  AAAAAA  RRRRR   N  N N  II  N  N N  G  GGG   !            |
|           WW  WW  A    A  R   R   N   NN  II  N   NN  G    G                |
|           W    W  A    A  R    R  N    N  II  N    N   GGGG   !!!           |
|                                                                             |
|     Tetrahedron method does not include variations of the Fermi             |
|     occupations, so forces and stress will be inaccurate. We suggest        |
|     using a different smearing scheme ISMEAR = 1 or 2 for metals in         |
|     relaxations.                                                            |
|                                                                             |
 -----------------------------------------------------------------------------

       N       E                     dE             d eps       ncg     rms          rms(c)
DAV:   1    -0.793812226797E+03    0.22325E-02   -0.45078E-01  3802   0.146E+00    0.177E-01
RMM:   2    -0.793813353183E+03   -0.11264E-02   -0.75685E-03  3728   0.192E-01    0.973E-02
RMM:   3    -0.793813988585E+03   -0.63540E-03   -0.16554E-03  3730   0.783E-02    0.348E-02
RMM:   4    -0.793813976378E+03    0.12207E-04   -0.21871E-04  3761   0.308E-02    0.156E-02
RMM:   5    -0.793814018869E+03   -0.42490E-04   -0.47715E-05  3776   0.139E-02    0.435E-03
RMM:   6    -0.793813984520E+03    0.34348E-04   -0.90612E-06  3632   0.590E-03    0.201E-03
RMM:   7    -0.793813982023E+03    0.24977E-05   -0.21635E-06  2520   0.279E-03    0.705E-04
RMM:   8    -0.793813983565E+03   -0.15421E-05   -0.44067E-07  2296   0.120E-03    0.271E-04
RMM:   9    -0.793813984022E+03   -0.45766E-06   -0.88034E-08  1557   0.581E-04
  16 F= -.79381398E+03 E0= -.79381398E+03  d E =0.475818E-03
 trial-energy change:    0.000476  1 .order   -0.005098   -0.009156   -0.001041
 step:   0.9361(harm=  0.9361)  dis= 0.00289  next Energy=  -793.819625 (dE=-0.517E-02)
 bond charge predicted
 -----------------------------------------------------------------------------
|                                                                             |
|           W    W    AA    RRRRR   N    N  II  N    N   GGGG   !!!           |
|           W    W   A  A   R    R  NN   N  II  NN   N  G    G  !!!           |
|           W    W  A    A  R    R  N N  N  II  N N  N  G       !!!           |
|           W WW W  AAAAAA  RRRRR   N  N N  II  N  N N  G  GGG   !            |
|           WW  WW  A    A  R   R   N   NN  II  N   NN  G    G                |
|           W    W  A    A  R    R  N    N  II  N    N   GGGG   !!!           |
|                                                                             |
|     Tetrahedron method does not include variations of the Fermi             |
|     occupations, so forces and stress will be inaccurate. We suggest        |
|     using a different smearing scheme ISMEAR = 1 or 2 for metals in         |
|     relaxations.                                                            |
|                                                                             |
 -----------------------------------------------------------------------------

       N       E                     dE             d eps       ncg     rms          rms(c)
DAV:   1    -0.793813086490E+03    0.89707E-03   -0.73605E-03  4120   0.187E-01    0.223E-02
RMM:   2    -0.793813247877E+03   -0.16139E-03   -0.12607E-04  3728   0.247E-02    0.120E-02
RMM:   3    -0.793813339677E+03   -0.91800E-04   -0.24914E-05  3728   0.977E-03    0.427E-03
RMM:   4    -0.793813340703E+03   -0.10262E-05   -0.34802E-06  2747   0.383E-03    0.187E-03
RMM:   5    -0.793813345336E+03   -0.46330E-05   -0.68814E-07  2257   0.166E-03    0.550E-04
RMM:   6    -0.793813340777E+03    0.45592E-05   -0.13849E-07  2059   0.711E-04    0.223E-04
RMM:   7    -0.793813340962E+03   -0.18553E-06   -0.13860E-08  1005   0.372E-04
  17 F= -.79381334E+03 E0= -.79381334E+03  d E =0.111888E-02
 curvature:  -0.75 expect dE=-0.239E-02 dE for cont linesearch -0.198E-06
 trial: gam= 0.42275 g(F)=  0.281E-02 g(S)=  0.385E-03 ort =-0.683E-04 (trialstep = 0.851E+00)
 search vector abs. value=  0.628E-02
 bond charge predicted
 -----------------------------------------------------------------------------
|                                                                             |
|           W    W    AA    RRRRR   N    N  II  N    N   GGGG   !!!           |
|           W    W   A  A   R    R  NN   N  II  NN   N  G    G  !!!           |
|           W    W  A    A  R    R  N N  N  II  N N  N  G       !!!           |
|           W WW W  AAAAAA  RRRRR   N  N N  II  N  N N  G  GGG   !            |
|           WW  WW  A    A  R   R   N   NN  II  N   NN  G    G                |
|           W    W  A    A  R    R  N    N  II  N    N   GGGG   !!!           |
|                                                                             |
|     Tetrahedron method does not include variations of the Fermi             |
|     occupations, so forces and stress will be inaccurate. We suggest        |
|     using a different smearing scheme ISMEAR = 1 or 2 for metals in         |
|     relaxations.                                                            |
|                                                                             |
 -----------------------------------------------------------------------------

       N       E                     dE             d eps       ncg     rms          rms(c)
DAV:   1    -0.793812157959E+03    0.11828E-02   -0.16352E-01  3822   0.909E-01    0.122E-01
RMM:   2    -0.793812589390E+03   -0.43143E-03   -0.29869E-03  3728   0.118E-01    0.686E-02
RMM:   3    -0.793812749951E+03   -0.16056E-03   -0.55750E-04  3730   0.478E-02    0.202E-02
RMM:   4    -0.793812720479E+03    0.29472E-04   -0.83583E-05  3768   0.188E-02    0.716E-03
RMM:   5    -0.793812730626E+03   -0.10148E-04   -0.16146E-05  3785   0.817E-03    0.303E-03
RMM:   6    -0.793812719790E+03    0.10837E-04   -0.31819E-06  2723   0.355E-03    0.996E-04
RMM:   7    -0.793812723478E+03   -0.36885E-05   -0.78717E-07  2306   0.170E-03    0.474E-04
RMM:   8    -0.793812723143E+03    0.33557E-06   -0.17450E-07  2062   0.787E-04
  18 F= -.79381272E+03 E0= -.79381272E+03  d E =0.617819E-03
 trial-energy change:    0.000618  1 .order   -0.000708   -0.002691    0.001275
 step:   0.5773(harm=  0.5773)  dis= 0.00101  next Energy=  -793.814254 (dE=-0.913E-03)
 bond charge predicted
 -----------------------------------------------------------------------------
|                                                                             |
|           W    W    AA    RRRRR   N    N  II  N    N   GGGG   !!!           |
|           W    W   A  A   R    R  NN   N  II  NN   N  G    G  !!!           |
|           W    W  A    A  R    R  N N  N  II  N N  N  G       !!!           |
|           W WW W  AAAAAA  RRRRR   N  N N  II  N  N N  G  GGG   !            |
|           WW  WW  A    A  R   R   N   NN  II  N   NN  G    G                |
|           W    W  A    A  R    R  N    N  II  N    N   GGGG   !!!           |
|                                                                             |
|     Tetrahedron method does not include variations of the Fermi             |
|     occupations, so forces and stress will be inaccurate. We suggest        |
|     using a different smearing scheme ISMEAR = 1 or 2 for metals in         |
|     relaxations.                                                            |
|                                                                             |
 -----------------------------------------------------------------------------

       N       E                     dE             d eps       ncg     rms          rms(c)
DAV:   1    -0.793813524360E+03   -0.80088E-03   -0.17395E-02  3868   0.292E-01    0.405E-02
RMM:   2    -0.793813389992E+03    0.13437E-03   -0.30452E-04  3728   0.379E-02    0.231E-02
RMM:   3    -0.793813322286E+03    0.67705E-04   -0.60264E-05  3730   0.157E-02    0.658E-03
RMM:   4    -0.793813333503E+03   -0.11217E-04   -0.90147E-06  3718   0.620E-03    0.243E-03
RMM:   5    -0.793813331701E+03    0.18024E-05   -0.16564E-06  2408   0.265E-03    0.995E-04
RMM:   6    -0.793813335774E+03   -0.40732E-05   -0.34340E-07  2260   0.111E-03    0.314E-04
RMM:   7    -0.793813334269E+03    0.15057E-05   -0.58469E-08  1421   0.538E-04    0.130E-04
RMM:   8    -0.793813334051E+03    0.21748E-06   -0.48496E-09   842   0.370E-04
  19 F= -.79381333E+03 E0= -.79381333E+03  d E =0.691105E-05
 curvature:  -0.57 expect dE=-0.148E-02 dE for cont linesearch -0.296E-05
 trial: gam= 0.81341 g(F)=  0.231E-02 g(S)=  0.275E-03 ort =-0.180E-03 (trialstep = 0.776E+00)
 search vector abs. value=  0.645E-02
 reached required accuracy - stopping structural energy minimisation
 -----------------------------------------------------------------------------
|                                                                             |
|           W    W    AA    RRRRR   N    N  II  N    N   GGGG   !!!           |
|           W    W   A  A   R    R  NN   N  II  NN   N  G    G  !!!           |
|           W    W  A    A  R    R  N N  N  II  N N  N  G       !!!           |
|           W WW W  AAAAAA  RRRRR   N  N N  II  N  N N  G  GGG   !            |
|           WW  WW  A    A  R   R   N   NN  II  N   NN  G    G                |
|           W    W  A    A  R    R  N    N  II  N    N   GGGG   !!!           |
|                                                                             |
|     Tetrahedron method does not include variations of the Fermi             |
|     occupations, so forces and stress will be inaccurate. We suggest        |
|     using a different smearing scheme ISMEAR = 1 or 2 for metals in         |
|     relaxations.                                                            |
|                                                                             |
 -----------------------------------------------------------------------------

Warning: ieee_invalid is signaling
Warning: ieee_divide_by_zero is signaling
Warning: ieee_underflow is signaling
Warning: ieee_inexact is signaling
FORTRAN STOP
