 vasp.6.2.0 18Jan21 (build Feb 25 2021 07:51:20) complex                         
 executed on             LinuxPGI date 2022.05.18  12:24:44
 running on    1 total cores
 distrk:  each k-point on    1 cores,    1 groups
 distr:  one band on NCORE=   1 cores,    1 groups


--------------------------------------------------------------------------------------------------------


 INCAR:
   ALGO = Fast
   PREC = Accurate
   EDIFF = 1E-6
   ENCUT = 700
   ISMEAR = -5
   IBRION = 2
   ISIF = 4
   LREAL = Auto
   LWAVE = False
   LCHARGE = False
   NSW = 300
   SIGMA = 0.05

 POTCAR:    PAW_PBE B 06Sep2000                   
 POTCAR:    PAW_PBE C 08Apr2002                   
 POTCAR:    PAW_PBE B 06Sep2000                   
   VRHFIN =B: s2p1                                                                                  
   LEXCH  = PE                                                                                      
   EATOM  =    71.1703 eV,    5.2309 Ry                                                             
                                                                                                    
   TITEL  = PAW_PBE B 06Sep2000                                                                     
   LULTRA =        F    use ultrasoft PP ?                                                          
   IUNSCR =        1    unscreen: 0-lin 1-nonlin 2-no                                               
   RPACOR =    1.200    partial core radius                                                         
   POMASS =   10.811; ZVAL   =    3.000    mass and valenz                                          
   RCORE  =    1.700    outmost cutoff radius                                                       
   RWIGS  =    1.710; RWIGS  =    0.905    wigner-seitz radius (au A)                               
   ENMAX  =  318.614; ENMIN  =  238.960 eV                                                          
   ICORE  =        2    local potential                                                             
   LCOR   =        T    correct aug charges                                                         
   LPAW   =        T    paw PP                                                                      
   EAUG   =  535.514                                                                                
   DEXC   =    0.000                                                                                
   RMAX   =    1.732    core radius for proj-oper                                                   
   RAUG   =    1.300    factor for augmentation sphere                                              
   RDEP   =    1.757    radius for radial grids                                                     
   RDEPT  =    1.436    core radius for aug-charge                                                  
                                                                                                    
   Atomic configuration                                                                             
    4 entries                                                                                       
     n  l   j            E        occ.                                                              
     1  0  0.50      -180.5896   2.0000                                                             
     2  0  0.50        -9.4431   2.0000                                                             
     2  1  0.50        -3.6068   1.0000                                                             
     3  2  1.50        -4.0817   0.0000                                                             
   Description                                                                                      
     l       E           TYP  RCUT    TYP  RCUT                                                     
     0     -9.4430752     23  1.500                                                                 
     0      0.8675899     23  1.500                                                                 
     1     -3.6067955     23  1.700                                                                 
     1      6.1086146     23  1.700                                                                 
     2     -4.0817478      7  1.700                                                                 
  local pseudopotential read in
  partial core-charges read in
  partial kinetic energy density read in
  atomic valenz-charges read in
  non local Contribution for L=            0  read in
    real space projection operators read in
  non local Contribution for L=            0  read in
    real space projection operators read in
  non local Contribution for L=            1  read in
    real space projection operators read in
  non local Contribution for L=            1  read in
    real space projection operators read in
    PAW grid and wavefunctions read in
 
   number of l-projection  operators is LMAX  =            4
   number of lm-projection operators is LMMAX =            8
 
 POTCAR:    PAW_PBE C 08Apr2002                   
   VRHFIN =C: s2p2                                                                                  
   LEXCH  = PE                                                                                      
   EATOM  =   147.1560 eV,   10.8157 Ry                                                             
                                                                                                    
   TITEL  = PAW_PBE C 08Apr2002                                                                     
   LULTRA =        F    use ultrasoft PP ?                                                          
   IUNSCR =        1    unscreen: 0-lin 1-nonlin 2-no                                               
   RPACOR =    1.200    partial core radius                                                         
   POMASS =   12.011; ZVAL   =    4.000    mass and valenz                                          
   RCORE  =    1.500    outmost cutoff radius                                                       
   RWIGS  =    1.630; RWIGS  =    0.863    wigner-seitz radius (au A)                               
   ENMAX  =  400.000; ENMIN  =  300.000 eV                                                          
   ICORE  =        2    local potential                                                             
   LCOR   =        T    correct aug charges                                                         
   LPAW   =        T    paw PP                                                                      
   EAUG   =  644.873                                                                                
   DEXC   =    0.000                                                                                
   RMAX   =    1.529    core radius for proj-oper                                                   
   RAUG   =    1.300    factor for augmentation sphere                                              
   RDEP   =    1.501    radius for radial grids                                                     
   RDEPT  =    1.300    core radius for aug-charge                                                  
                                                                                                    
   Atomic configuration                                                                             
    4 entries                                                                                       
     n  l   j            E        occ.                                                              
     1  0  0.50      -273.3789   2.0000                                                             
     2  0  0.50       -13.7508   2.0000                                                             
     2  1  0.50        -5.2854   2.0000                                                             
     3  2  1.50        -5.4423   0.0000                                                             
   Description                                                                                      
     l       E           TYP  RCUT    TYP  RCUT                                                     
     0    -13.7508458     23  1.200                                                                 
     0     -8.2022199     23  1.200                                                                 
     1     -5.2854383     23  1.500                                                                 
     1     34.0145650     23  1.500                                                                 
     2     -5.4423304      7  1.500                                                                 
  local pseudopotential read in
  partial core-charges read in
  partial kinetic energy density read in
  atomic valenz-charges read in
  non local Contribution for L=            0  read in
    real space projection operators read in
  non local Contribution for L=            0  read in
    real space projection operators read in
  non local Contribution for L=            1  read in
    real space projection operators read in
  non local Contribution for L=            1  read in
    real space projection operators read in
    PAW grid and wavefunctions read in
 
   number of l-projection  operators is LMAX  =            4
   number of lm-projection operators is LMMAX =            8
 
 Optimization of the real space projectors (new method)

 maximal supplied QI-value         = 22.11
 optimisation between [QCUT,QGAM] = [ 13.49, 26.97] = [ 50.94,203.75] Ry 
 Optimized for a Real-space Cutoff    1.14 Angstroem

   l    n(q)    QCUT    max X(q) W(low)/X(q) W(high)/X(q)  e(spline) 
   0      9    13.487    53.033    0.17E-03    0.11E-03    0.20E-06
   0      9    13.487    34.740    0.17E-03    0.11E-03    0.20E-06
   1      9    13.487    30.949    0.61E-04    0.25E-04    0.11E-06
   1      9    13.487    19.518    0.55E-04    0.23E-04    0.10E-06
 Optimization of the real space projectors (new method)

 maximal supplied QI-value         = 25.13
 optimisation between [QCUT,QGAM] = [ 13.32, 26.89] = [ 49.69,202.52] Ry 
 Optimized for a Real-space Cutoff    1.07 Angstroem

   l    n(q)    QCUT    max X(q) W(low)/X(q) W(high)/X(q)  e(spline) 
   0      9    13.321   115.676    0.24E-03    0.18E-03    0.16E-06
   0      9    13.321    87.132    0.24E-03    0.18E-03    0.16E-06
   1      8    13.321     4.429    0.20E-03    0.27E-03    0.12E-06
   1      8    13.321     2.733    0.16E-03    0.21E-03    0.12E-06
  PAW_PBE B 06Sep2000                   :
 energy of atom  1       EATOM=  -71.1703
 kinetic energy error for atom=    0.0004 (will be added to EATOM!!)
  PAW_PBE C 08Apr2002                   :
 energy of atom  2       EATOM= -147.1560
 kinetic energy error for atom=    0.0032 (will be added to EATOM!!)
 
 
 POSCAR: B96 C16
  positions in direct lattice
  No initial velocities read in
 exchange correlation table for  LEXCH =        8
   RHO(1)=    0.500       N(1)  =     2000
   RHO(2)=  100.500       N(2)  =     4000
 


--------------------------------------------------------------------------------------------------------


 ion  position               nearest neighbor table
   1  0.160  0.401  0.401-  97 1.60  42 1.70  59 1.71  35 1.78  66 1.80  76 1.91
   2  0.160  0.401  0.901-  98 1.60  41 1.70  60 1.71  36 1.78  65 1.80  75 1.91
   3  0.160  0.901  0.401-  99 1.60  44 1.70  57 1.71  33 1.78  68 1.80  74 1.91
   4  0.160  0.901  0.901- 100 1.60  43 1.70  58 1.71  34 1.78  67 1.80  73 1.91
   5  0.660  0.401  0.401- 101 1.60  46 1.70  63 1.71  39 1.78  70 1.80  80 1.91
   6  0.660  0.401  0.901- 102 1.60  45 1.70  64 1.71  40 1.78  69 1.80  79 1.91
   7  0.660  0.901  0.401- 103 1.60  48 1.70  61 1.71  37 1.78  72 1.80  78 1.91
   8  0.660  0.901  0.901- 104 1.60  47 1.70  62 1.71  38 1.78  71 1.80  77 1.91
   9  0.401  0.401  0.160-  97 1.47  51 1.66  27 1.78  45 1.78  87 1.86  69 1.89
  10  0.401  0.401  0.660-  98 1.47  52 1.66  28 1.78  46 1.78  88 1.86  70 1.89
  11  0.401  0.901  0.160-  99 1.47  49 1.66  25 1.78  47 1.78  85 1.86  71 1.89
  12  0.401  0.901  0.660- 100 1.47  50 1.66  26 1.78  48 1.78  86 1.86  72 1.89
  13  0.901  0.401  0.160- 101 1.47  55 1.66  31 1.78  41 1.78  83 1.86  65 1.89
  14  0.901  0.401  0.660- 102 1.47  56 1.66  32 1.78  42 1.78  84 1.86  66 1.89
  15  0.901  0.901  0.160- 103 1.47  53 1.66  29 1.78  43 1.78  81 1.86  67 1.89
  16  0.901  0.901  0.660- 104 1.47  54 1.66  30 1.78  44 1.78  82 1.86  68 1.89
  17  0.401  0.160  0.401-  97 1.45  26 1.70  37 1.78  94 1.79  50 1.79  61 1.94
  18  0.401  0.160  0.901-  98 1.45  25 1.70  38 1.78  93 1.79  49 1.79  62 1.94
  19  0.401  0.660  0.401-  99 1.45  28 1.70  39 1.78  96 1.79  52 1.79  63 1.94
  20  0.401  0.660  0.901- 100 1.45  27 1.70  40 1.78  95 1.79  51 1.79  64 1.94
  21  0.901  0.160  0.401- 101 1.45  30 1.70  33 1.78  90 1.79  54 1.79  57 1.94
  22  0.901  0.160  0.901- 102 1.45  29 1.70  34 1.78  89 1.79  53 1.79  58 1.94
  23  0.901  0.660  0.401- 103 1.45  32 1.70  35 1.78  92 1.79  56 1.79  59 1.94
  24  0.901  0.660  0.901- 104 1.45  31 1.70  36 1.78  91 1.79  55 1.79  60 1.94
  25  0.340  0.099  0.099- 105 1.60  18 1.70  85 1.71  11 1.78  93 1.80  49 1.91
  26  0.340  0.099  0.599- 106 1.60  17 1.70  86 1.71  12 1.78  94 1.80  50 1.91
  27  0.340  0.599  0.099- 107 1.60  20 1.70  87 1.71   9 1.78  95 1.80  51 1.91
  28  0.340  0.599  0.599- 108 1.60  19 1.70  88 1.71  10 1.78  96 1.80  52 1.91
  29  0.840  0.099  0.099- 109 1.60  22 1.70  81 1.71  15 1.78  89 1.80  53 1.91
  30  0.840  0.099  0.599- 110 1.60  21 1.70  82 1.71  16 1.78  90 1.80  54 1.91
  31  0.840  0.599  0.099- 111 1.60  24 1.70  83 1.71  13 1.78  91 1.80  55 1.91
  32  0.840  0.599  0.599- 112 1.60  23 1.70  84 1.71  14 1.78  92 1.80  56 1.91
  33  0.099  0.099  0.340- 105 1.47  74 1.66   3 1.78  21 1.78  57 1.86  90 1.89
  34  0.099  0.099  0.840- 106 1.47  73 1.66   4 1.78  22 1.78  58 1.86  89 1.89
  35  0.099  0.599  0.340- 107 1.47  76 1.66   1 1.78  23 1.78  59 1.86  92 1.89
  36  0.099  0.599  0.840- 108 1.47  75 1.66   2 1.78  24 1.78  60 1.86  91 1.89
  37  0.599  0.099  0.340- 109 1.47  78 1.66   7 1.78  17 1.78  61 1.86  94 1.89
  38  0.599  0.099  0.840- 110 1.47  77 1.66   8 1.78  18 1.78  62 1.86  93 1.89
  39  0.599  0.599  0.340- 111 1.47  80 1.66   5 1.78  19 1.78  63 1.86  96 1.89
  40  0.599  0.599  0.840- 112 1.47  79 1.66   6 1.78  20 1.78  64 1.86  95 1.89
  41  0.099  0.340  0.099- 105 1.45   2 1.70  13 1.78  65 1.79  75 1.79  83 1.94
  42  0.099  0.340  0.599- 106 1.45   1 1.70  14 1.78  66 1.79  76 1.79  84 1.94
  43  0.099  0.840  0.099- 107 1.45   4 1.70  15 1.78  67 1.79  73 1.79  81 1.94
  44  0.099  0.840  0.599- 108 1.45   3 1.70  16 1.78  68 1.79  74 1.79  82 1.94
  45  0.599  0.340  0.099- 109 1.45   6 1.70   9 1.78  69 1.79  79 1.79  87 1.94
  46  0.599  0.340  0.599- 110 1.45   5 1.70  10 1.78  70 1.79  80 1.79  88 1.94
  47  0.599  0.840  0.099- 111 1.45   8 1.70  11 1.78  71 1.79  77 1.79  85 1.94
  48  0.599  0.840  0.599- 112 1.45   7 1.70  12 1.78  72 1.79  78 1.79  86 1.94
  49  0.332  0.000  0.000-  11 1.66  73 1.71  18 1.79  62 1.87  71 1.87  25 1.91
  50  0.332  0.000  0.500-  12 1.66  74 1.71  17 1.79  61 1.87  72 1.87  26 1.91
  51  0.332  0.500  0.000-   9 1.66  75 1.71  20 1.79  64 1.87  69 1.87  27 1.91
  52  0.332  0.500  0.500-  10 1.66  76 1.71  19 1.79  63 1.87  70 1.87  28 1.91
  53  0.832  0.000  0.000-  15 1.66  77 1.71  22 1.79  58 1.87  67 1.87  29 1.91
  54  0.832  0.000  0.500-  16 1.66  78 1.71  21 1.79  57 1.87  68 1.87  30 1.91
  55  0.832  0.500  0.000-  13 1.66  79 1.71  24 1.79  60 1.87  65 1.87  31 1.91
  56  0.832  0.500  0.500-  14 1.66  80 1.71  23 1.79  59 1.87  66 1.87  32 1.91
  57  0.000  0.000  0.332-  81 1.71  68 1.71   3 1.71  33 1.86  54 1.87  21 1.94
  58  0.000  0.000  0.832-  82 1.71  67 1.71   4 1.71  34 1.86  53 1.87  22 1.94
  59  0.000  0.500  0.332-  83 1.71  66 1.71   1 1.71  35 1.86  56 1.87  23 1.94
  60  0.000  0.500  0.832-  84 1.71  65 1.71   2 1.71  36 1.86  55 1.87  24 1.94
  61  0.500  0.000  0.332-  85 1.71  72 1.71   7 1.71  37 1.86  50 1.87  17 1.94
  62  0.500  0.000  0.832-  86 1.71  71 1.71   8 1.71  38 1.86  49 1.87  18 1.94
  63  0.500  0.500  0.332-  87 1.71  70 1.71   5 1.71  39 1.86  52 1.87  19 1.94
  64  0.500  0.500  0.832-  88 1.71  69 1.71   6 1.71  40 1.86  51 1.87  20 1.94
  65  0.000  0.332  0.000-  60 1.71  41 1.79   2 1.80  89 1.82  55 1.87  13 1.89
  66  0.000  0.332  0.500-  59 1.71  42 1.79   1 1.80  90 1.82  56 1.87  14 1.89
  67  0.000  0.832  0.000-  58 1.71  43 1.79   4 1.80  91 1.82  53 1.87  15 1.89
  68  0.000  0.832  0.500-  57 1.71  44 1.79   3 1.80  92 1.82  54 1.87  16 1.89
  69  0.500  0.332  0.000-  64 1.71  45 1.79   6 1.80  93 1.82  51 1.87   9 1.89
  70  0.500  0.332  0.500-  63 1.71  46 1.79   5 1.80  94 1.82  52 1.87  10 1.89
  71  0.500  0.832  0.000-  62 1.71  47 1.79   8 1.80  95 1.82  49 1.87  11 1.89
  72  0.500  0.832  0.500-  61 1.71  48 1.79   7 1.80  96 1.82  50 1.87  12 1.89
  73  0.168  1.000  1.000-  34 1.66  49 1.71  43 1.79  81 1.87  89 1.87   4 1.91
  74  0.168  1.000  0.500-  33 1.66  50 1.71  44 1.79  82 1.87  90 1.87   3 1.91
  75  0.168  0.500  1.000-  36 1.66  51 1.71  41 1.79  83 1.87  91 1.87   2 1.91
  76  0.168  0.500  0.500-  35 1.66  52 1.71  42 1.79  84 1.87  92 1.87   1 1.91
  77  0.668  1.000  1.000-  38 1.66  53 1.71  47 1.79  85 1.87  93 1.87   8 1.91
  78  0.668  1.000  0.500-  37 1.66  54 1.71  48 1.79  86 1.87  94 1.87   7 1.91
  79  0.668  0.500  1.000-  40 1.66  55 1.71  45 1.79  87 1.87  95 1.87   6 1.91
  80  0.668  0.500  0.500-  39 1.66  56 1.71  46 1.79  88 1.87  96 1.87   5 1.91
  81  1.000  1.000  0.168-  57 1.71  89 1.71  29 1.71  15 1.86  73 1.87  43 1.94
  82  1.000  1.000  0.668-  58 1.71  90 1.71  30 1.71  16 1.86  74 1.87  44 1.94
  83  1.000  0.500  0.168-  59 1.71  91 1.71  31 1.71  13 1.86  75 1.87  41 1.94
  84  1.000  0.500  0.668-  60 1.71  92 1.71  32 1.71  14 1.86  76 1.87  42 1.94
  85  0.500  1.000  0.168-  61 1.71  93 1.71  25 1.71  11 1.86  77 1.87  47 1.94
  86  0.500  1.000  0.668-  62 1.71  94 1.71  26 1.71  12 1.86  78 1.87  48 1.94
  87  0.500  0.500  0.168-  63 1.71  95 1.71  27 1.71   9 1.86  79 1.87  45 1.94
  88  0.500  0.500  0.668-  64 1.71  96 1.71  28 1.71  10 1.86  80 1.87  46 1.94
  89  1.000  0.168  1.000-  81 1.71  22 1.79  29 1.80  65 1.82  73 1.87  34 1.89
  90  1.000  0.168  0.500-  82 1.71  21 1.79  30 1.80  66 1.82  74 1.87  33 1.89
  91  1.000  0.668  1.000-  83 1.71  24 1.79  31 1.80  67 1.82  75 1.87  36 1.89
  92  1.000  0.668  0.500-  84 1.71  23 1.79  32 1.80  68 1.82  76 1.87  35 1.89
  93  0.500  0.168  1.000-  85 1.71  18 1.79  25 1.80  69 1.82  77 1.87  38 1.89
  94  0.500  0.168  0.500-  86 1.71  17 1.79  26 1.80  70 1.82  78 1.87  37 1.89
  95  0.500  0.668  1.000-  87 1.71  20 1.79  27 1.80  71 1.82  79 1.87  40 1.89
  96  0.500  0.668  0.500-  88 1.71  19 1.79  28 1.80  72 1.82  80 1.87  39 1.89
  97  0.315  0.315  0.315-  17 1.45   9 1.47   1 1.60
  98  0.315  0.315  0.815-  18 1.45  10 1.47   2 1.60
  99  0.315  0.815  0.315-  19 1.45  11 1.47   3 1.60
 100  0.315  0.815  0.815-  20 1.45  12 1.47   4 1.60
 101  0.815  0.315  0.315-  21 1.45  13 1.47   5 1.60
 102  0.815  0.315  0.815-  22 1.45  14 1.47   6 1.60
 103  0.815  0.815  0.315-  23 1.45  15 1.47   7 1.60
 104  0.815  0.815  0.815-  24 1.45  16 1.47   8 1.60
 105  0.185  0.185  0.185-  41 1.45  33 1.47  25 1.60
 106  0.185  0.185  0.685-  42 1.45  34 1.47  26 1.60
 107  0.185  0.685  0.185-  43 1.45  35 1.47  27 1.60
 108  0.185  0.685  0.685-  44 1.45  36 1.47  28 1.60
 109  0.685  0.185  0.185-  45 1.45  37 1.47  29 1.60
 110  0.685  0.185  0.685-  46 1.45  38 1.47  30 1.60
 111  0.685  0.685  0.185-  47 1.45  39 1.47  31 1.60
 112  0.685  0.685  0.685-  48 1.45  40 1.47  32 1.60
 
  LATTYP: Found a triclinic cell.
 ALAT       =    11.0155077932
 B/A-ratio  =     1.3628692978
 C/A-ratio  =     0.9419211459
 COS(alpha) =     0.0031498524
 COS(beta)  =     0.5459580160
 COS(gamma) =     0.6744244167
  
  Lattice vectors:
  
 A1 = (  -2.7959790000,  -9.7762410000,  -4.2366290000)
 A2 = ( -12.1232000000,  -8.6863420000,   1.7194670000)
 A3 = (  -0.0977430000,  -1.9377250000, -10.1927250000)


Analysis of symmetry for initial positions (statically):
=====================================================================
 Subroutine PRICEL returns following result:
 
  LATTYP: Found a triclinic cell.
 ALAT       =     5.5077538966
 B/A-ratio  =     1.3628692978
 C/A-ratio  =     0.9419211459
 COS(alpha) =     0.0031498524
 COS(beta)  =     0.5459580160
 COS(gamma) =     0.6744244167
  
  Lattice vectors:
  
 A1 = (  -1.3979895000,  -4.8881205000,  -2.1183145000)
 A2 = (  -6.0616000000,  -4.3431710000,   0.8597335000)
 A3 = (  -0.0488715000,  -0.9688625000,  -5.0963625000)
 
   8 primitive cells build up your supercell.
 

 Routine SETGRP: Setting up the symmetry group for a 
 triclinic supercell.


 Subroutine GETGRP returns: Found  2 space group operations
 (whereof  2 operations were pure point group operations)
 out of a pool of  2 trial point group operations.


The static configuration has the point symmetry S_2 .


Analysis of symmetry for dynamics (positions and initial velocities):
=====================================================================
 Subroutine PRICEL returns following result:
 
  LATTYP: Found a triclinic cell.
 ALAT       =     5.5077538966
 B/A-ratio  =     1.3628692978
 C/A-ratio  =     0.9419211459
 COS(alpha) =     0.0031498524
 COS(beta)  =     0.5459580160
 COS(gamma) =     0.6744244167
  
  Lattice vectors:
  
 A1 = (  -1.3979895000,  -4.8881205000,  -2.1183145000)
 A2 = (  -6.0616000000,  -4.3431710000,   0.8597335000)
 A3 = (  -0.0488715000,  -0.9688625000,  -5.0963625000)
 
   8 primitive cells build up your supercell.
 

 Routine SETGRP: Setting up the symmetry group for a 
 triclinic supercell.


 Subroutine GETGRP returns: Found  2 space group operations
 (whereof  2 operations were pure point group operations)
 out of a pool of  2 trial point group operations.


The dynamic configuration has the point symmetry S_2 .


 Subroutine INISYM returns: Found  2 space group operations
 (whereof  2 operations are pure point group operations),
 and found     8 'primitive' translations


----------------------------------------------------------------------------------------

                                     Primitive cell                                     

  volume of cell :     107.1107

  direct lattice vectors                    reciprocal lattice vectors
    -1.397989500 -4.888120500 -2.118314500     0.214426141 -0.288805161  0.052848117
    -6.061600000 -4.343171000  0.859733500    -0.213417289  0.065550268 -0.010415109
    -0.048871500 -0.968862500 -5.096362500    -0.125129246  0.131100549 -0.219941802

  length of vectors
     5.507753897  7.506348685  5.187869861     0.363565557  0.223500003  0.284989611

  position of ions in fractional coordinates (direct lattice)
     0.519760000  0.679210000  0.878180000
     1.000000000  0.198970000  0.878180000
     0.480240000  0.198970000  0.397940000
     0.480240000  0.320790000  0.121820000
    -0.000000000  0.801030000  0.121820000
     0.519760000  0.801030000  0.602060000
     0.664356000  0.335414000  0.335184000
    -0.000000000  0.999770000  0.335184000
     0.335644000  0.999770000  0.999540000
     0.335644000  0.664586000  0.664816000
     1.000000000  0.000230000  0.664816000
     0.664356000  0.000230000  0.000460000
     1.000000000  0.369206000  0.738412000
     1.000000000  0.630794000  0.261588000

  ion indices of the primitive-cell ions
   primitive index   ion index
                 1           1
                 2           9
                 3          17
                 4          28
                 5          35
                 6          42
                 7          52
                 8          59
                 9          66
                10          76
                11          83
                12          90
                13          97
                14         105

----------------------------------------------------------------------------------------

 
 -----------------------------------------------------------------------------
|                                                                             |
|           W    W    AA    RRRRR   N    N  II  N    N   GGGG   !!!           |
|           W    W   A  A   R    R  NN   N  II  NN   N  G    G  !!!           |
|           W    W  A    A  R    R  N N  N  II  N N  N  G       !!!           |
|           W WW W  AAAAAA  RRRRR   N  N N  II  N  N N  G  GGG   !            |
|           WW  WW  A    A  R   R   N   NN  II  N   NN  G    G                |
|           W    W  A    A  R    R  N    N  II  N    N   GGGG   !!!           |
|                                                                             |
|     The requested file  could not be found or opened for reading            |
|     k-point information. Automatic k-point generation is used as a          |
|     fallback, which may lead to unwanted results.                           |
|                                                                             |
 -----------------------------------------------------------------------------

 

Automatic generation of k-mesh.
 Grid dimensions derived from KSPACING:
 generate k-points for:    2    2    2

 Generating k-lattice:

  Cartesian coordinates                     Fractional coordinates (reciprocal lattice)
     0.053354322 -0.016387567  0.002603777     0.500000000  0.000000000  0.000000000
    -0.000252213  0.055813723 -0.010608252     0.000000000  0.500000000  0.000000000
    -0.022072011 -0.016387570  0.052381673     0.000000000  0.000000000  0.500000000

  Length of vectors
     0.055875001  0.056813470  0.059157128

  Shift w.r.t. Gamma in fractional coordinates (k-lattice)
     0.000000000  0.000000000  0.000000000

 TETIRR: Found     24 inequivalent tetrahedra from       48
 
 Subroutine IBZKPT returns following result:
 ===========================================
 
 Found      8 irreducible k-points:
 
 Following reciprocal coordinates:
            Coordinates               Weight
  0.000000  0.000000  0.000000      1.000000
  0.500000  0.000000  0.000000      1.000000
  0.000000  0.500000  0.000000      1.000000
  0.500000  0.500000  0.000000      1.000000
  0.000000  0.000000  0.500000      1.000000
  0.500000  0.000000  0.500000      1.000000
  0.000000  0.500000  0.500000      1.000000
  0.500000  0.500000  0.500000      1.000000
 
 Following cartesian coordinates:
            Coordinates               Weight
  0.000000  0.000000  0.000000      1.000000
  0.053354 -0.016388  0.002604      1.000000
 -0.000252  0.055814 -0.010608      1.000000
  0.053102  0.039426 -0.008004      1.000000
 -0.022072 -0.016388  0.052382      1.000000
  0.031282 -0.032775  0.054985      1.000000
 -0.022324  0.039426  0.041773      1.000000
  0.031030  0.023039  0.044377      1.000000
 


--------------------------------------------------------------------------------------------------------




 Dimension of arrays:
   k-points           NKPTS =      8   k-points in BZ     NKDIM =      8   number of bands    NBANDS=    233
   number of dos      NEDOS =    301   number of ions     NIONS =    112
   non local maximal  LDIM  =      4   non local SUM 2l+1 LMDIM =      8
   total plane-waves  NPLWV = 777600
   max r-space proj   IRMAX =   5686   max aug-charges    IRDMAX=  14349
   dimension x,y,z NGX =    90 NGY =   96 NGZ =   90
   dimension x,y,z NGXF=   180 NGYF=  192 NGZF=  180
   support grid    NGXF=   180 NGYF=  192 NGZF=  180
   ions per type =              96  16
   NGX,Y,Z   is equivalent  to a cutoff of  14.43, 14.49, 14.42 a.u.
   NGXF,Y,Z  is equivalent  to a cutoff of  28.86, 28.98, 28.84 a.u.

 SYSTEM =  unknown system                          
 POSCAR =  B96 C16                                 

 Startparameter for this run:
   NWRITE =      2    write-flag & timer
   PREC   = accura    normal or accurate (medium, high low for compatibility)
   ISTART =      0    job   : 0-new  1-cont  2-samecut
   ICHARG =      2    charge: 1-file 2-atom 10-const
   ISPIN  =      1    spin polarized calculation?
   LNONCOLLINEAR =      F non collinear calculations
   LSORBIT =      F    spin-orbit coupling
   INIWAV =      1    electr: 0-lowe 1-rand  2-diag
   LASPH  =      F    aspherical Exc in radial PAW
   METAGGA=      F    non-selfconsistent MetaGGA calc.

 Electronic Relaxation 1
   ENCUT  =  700.0 eV  51.45 Ry    7.17 a.u.  22.37 23.76 22.38*2*pi/ulx,y,z
   ENINI  =  700.0     initial cutoff
   ENAUG  =  644.9 eV  augmentation charge cutoff
   NELM   =     60;   NELMIN=  2; NELMDL= -5     # of ELM steps 
   EDIFF  = 0.1E-05   stopping-criterion for ELM
   LREAL  =      T    real-space projection
   NLSPLINE    = F    spline interpolate recip. space projectors
   LCOMPAT=      F    compatible to vasp.4.4
   GGA_COMPAT  = T    GGA compatible to vasp.4.4-vasp.4.6
   LMAXPAW     = -100 max onsite density
   LMAXMIX     =    2 max onsite mixed and CHGCAR
   VOSKOWN=      0    Vosko Wilk Nusair interpolation
   ROPT   =   -0.00025  -0.00025
 Ionic relaxation
   EDIFFG = 0.1E-04   stopping-criterion for IOM
   NSW    =    300    number of steps for IOM
   NBLOCK =      1;   KBLOCK =    300    inner block; outer block 
   IBRION =      2    ionic relax: 0-MD 1-quasi-New 2-CG
   NFREE  =      1    steps in history (QN), initial steepest desc. (CG)
   ISIF   =      4    stress and relaxation
   IWAVPR =     11    prediction:  0-non 1-charg 2-wave 3-comb
   ISYM   =      2    0-nonsym 1-usesym 2-fastsym
   LCORR  =      T    Harris-Foulkes like correction to forces

   POTIM  = 0.5000    time-step for ionic-motion
   TEIN   =    0.0    initial temperature
   TEBEG  =    0.0;   TEEND  =   0.0 temperature during run
   SMASS  =  -3.00    Nose mass-parameter (am)
   estimated Nose-frequenzy (Omega)   =  0.10E-29 period in steps = 0.13E+47 mass=  -0.246E-26a.u.
   SCALEE = 1.0000    scale energy and forces
   NPACO  =    256;   APACO  = 16.0  distance and # of slots for P.C.
   PSTRESS=    0.0 pullay stress

  Mass of Ions in am
   POMASS =  10.81 12.01
  Ionic Valenz
   ZVAL   =   3.00  4.00
  Atomic Wigner-Seitz radii
   RWIGS  =  -1.00 -1.00
  virtual crystal weights 
   VCA    =   1.00  1.00
   NELECT =     352.0000    total number of electrons
   NUPDOWN=      -1.0000    fix difference up-down

 DOS related values:
   EMIN   =  10.00;   EMAX   =-10.00  energy-range for DOS
   EFERMI =   0.00
   ISMEAR =    -5;   SIGMA  =   0.05  broadening in eV -4-tet -1-fermi 0-gaus

 Electronic relaxation 2 (details)
   IALGO  =     68    algorithm
   LDIAG  =      T    sub-space diagonalisation (order eigenvalues)
   LSUBROT=      F    optimize rotation matrix (better conditioning)
   TURBO    =      0    0=normal 1=particle mesh
   IRESTART =      0    0=no restart 2=restart with 2 vectors
   NREBOOT  =      0    no. of reboots
   NMIN     =      0    reboot dimension
   EREF     =   0.00    reference energy to select bands
   IMIX   =      4    mixing-type and parameters
     AMIX     =   0.40;   BMIX     =  1.00
     AMIX_MAG =   1.60;   BMIX_MAG =  1.00
     AMIN     =   0.10
     WC   =   100.;   INIMIX=   1;  MIXPRE=   1;  MAXMIX= -45

 Intra band minimization:
   WEIMIN = 0.0010     energy-eigenvalue tresh-hold
   EBREAK =  0.11E-08  absolut break condition
   DEPER  =   0.30     relativ break condition  

   TIME   =   0.40     timestep for ELM

  volume/ion in A,a.u.               =       7.65        51.63
  Fermi-wavevector in a.u.,A,eV,Ry     =   1.216974  2.299748 20.150589  1.481027
  Thomas-Fermi vector in A             =   2.352310
 
 Write flags
   LWAVE        =      F    write WAVECAR
   LDOWNSAMPLE  =      F    k-point downsampling of WAVECAR
   LCHARG       =      T    write CHGCAR
   LVTOT        =      F    write LOCPOT, total local potential
   LVHAR        =      F    write LOCPOT, Hartree potential only
   LELF         =      F    write electronic localiz. function (ELF)
   LORBIT       =      0    0 simple, 1 ext, 2 COOP (PROOUT), +10 PAW based schemes


 Dipole corrections
   LMONO  =      F    monopole corrections only (constant potential shift)
   LDIPOL =      F    correct potential (dipole corrections)
   IDIPOL =      0    1-x, 2-y, 3-z, 4-all directions 
   EPSILON=  1.0000000 bulk dielectric constant

 Exchange correlation treatment:
   GGA     =    --    GGA type
   LEXCH   =     8    internal setting for exchange type
   VOSKOWN=      0    Vosko Wilk Nusair interpolation
   LHFCALC =     F    Hartree Fock is set to
   LHFONE  =     F    Hartree Fock one center treatment
   AEXX    =    0.0000 exact exchange contribution

 Linear response parameters
   LEPSILON=     F    determine dielectric tensor
   LRPA    =     F    only Hartree local field effects (RPA)
   LNABLA  =     F    use nabla operator in PAW spheres
   LVEL    =     F    velocity operator in full k-point grid
   LINTERFAST=   F  fast interpolation
   KINTER  =     0    interpolate to denser k-point grid
   CSHIFT  =0.1000    complex shift for real part using Kramers Kronig
   OMEGAMAX=  -1.0    maximum frequency
   DEG_THRESHOLD= 0.2000000E-02 threshold for treating states as degnerate
   RTIME   =   -0.100 relaxation time in fs
  (WPLASMAI=    0.000 imaginary part of plasma frequency in eV, 0.658/RTIME)
   DFIELD  = 0.0000000 0.0000000 0.0000000 field for delta impulse in time
 
 Orbital magnetization related:
   ORBITALMAG=     F  switch on orbital magnetization
   LCHIMAG   =     F  perturbation theory with respect to B field
   DQ        =  0.001000  dq finite difference perturbation B field
   LLRAUG    =     F  two centre corrections for induced B field



--------------------------------------------------------------------------------------------------------


 conjugate gradient relaxation of ions
 charge density and potential will be updated during run
 non-spin polarized calculation
 RMM-DIIS sequential band-by-band and
  variant of blocked Davidson during initial phase
 perform sub-space diagonalisation
    before iterative eigenvector-optimisation
 modified Broyden-mixing scheme, WC =      100.0
 initial mixing is a Kerker type mixing with AMIX =  0.4000 and BMIX =      1.0000
 Hartree-type preconditioning will be used
 using additional bands            57
 real space projection scheme for non local part
 use partial core corrections
 calculate Harris-corrections to forces 
   (improved forces if not selfconsistent)
 use gradient corrections 
 use of overlap-Matrix (Vanderbilt PP)
 Fermi weights with tetrahedron method with Bloechl corrections


--------------------------------------------------------------------------------------------------------


  energy-cutoff  :      700.00
  volume of cell :      856.89
      direct lattice vectors                 reciprocal lattice vectors
     9.424964000  0.847826000  4.236629000     0.106708645 -0.032775134  0.005207555
     2.795979000  9.776241000  4.236629000    -0.000504426  0.111627447 -0.021216504
     0.097743000  1.937725000 10.192725000    -0.044144022 -0.032775141  0.104763346

  length of vectors
    10.368113648 11.015507793 10.375739723     0.111750002  0.113626939  0.118314256


 
 k-points in units of 2pi/SCALE and weight: read from INCAR                         
   0.00000000  0.00000000  0.00000000       0.125
   0.05335432 -0.01638757  0.00260378       0.125
  -0.00025221  0.05581372 -0.01060825       0.125
   0.05310211  0.03942616 -0.00800447       0.125
  -0.02207201 -0.01638757  0.05238167       0.125
   0.03128231 -0.03277514  0.05498545       0.125
  -0.02232422  0.03942615  0.04177342       0.125
   0.03103010  0.02303859  0.04437720       0.125
 
 k-points in reciprocal lattice and weights: read from INCAR                         
   0.00000000  0.00000000  0.00000000       0.125
   0.50000000  0.00000000  0.00000000       0.125
   0.00000000  0.50000000  0.00000000       0.125
   0.50000000  0.50000000  0.00000000       0.125
   0.00000000  0.00000000  0.50000000       0.125
   0.50000000  0.00000000  0.50000000       0.125
   0.00000000  0.50000000  0.50000000       0.125
   0.50000000  0.50000000  0.50000000       0.125
 
 position of ions in fractional coordinates (direct lattice) 
   0.16039500  0.40051500  0.40051500
   0.16039500  0.40051500  0.90051500
   0.16039500  0.90051500  0.40051500
   0.16039500  0.90051500  0.90051500
   0.66039500  0.40051500  0.40051500
   0.66039500  0.40051500  0.90051500
   0.66039500  0.90051500  0.40051500
   0.66039500  0.90051500  0.90051500
   0.40051500  0.40051500  0.16039500
   0.40051500  0.40051500  0.66039500
   0.40051500  0.90051500  0.16039500
   0.40051500  0.90051500  0.66039500
   0.90051500  0.40051500  0.16039500
   0.90051500  0.40051500  0.66039500
   0.90051500  0.90051500  0.16039500
   0.90051500  0.90051500  0.66039500
   0.40051500  0.16039500  0.40051500
   0.40051500  0.16039500  0.90051500
   0.40051500  0.66039500  0.40051500
   0.40051500  0.66039500  0.90051500
   0.90051500  0.16039500  0.40051500
   0.90051500  0.16039500  0.90051500
   0.90051500  0.66039500  0.40051500
   0.90051500  0.66039500  0.90051500
   0.33960500  0.09948500  0.09948500
   0.33960500  0.09948500  0.59948500
   0.33960500  0.59948500  0.09948500
   0.33960500  0.59948500  0.59948500
   0.83960500  0.09948500  0.09948500
   0.83960500  0.09948500  0.59948500
   0.83960500  0.59948500  0.09948500
   0.83960500  0.59948500  0.59948500
   0.09948500  0.09948500  0.33960500
   0.09948500  0.09948500  0.83960500
   0.09948500  0.59948500  0.33960500
   0.09948500  0.59948500  0.83960500
   0.59948500  0.09948500  0.33960500
   0.59948500  0.09948500  0.83960500
   0.59948500  0.59948500  0.33960500
   0.59948500  0.59948500  0.83960500
   0.09948500  0.33960500  0.09948500
   0.09948500  0.33960500  0.59948500
   0.09948500  0.83960500  0.09948500
   0.09948500  0.83960500  0.59948500
   0.59948500  0.33960500  0.09948500
   0.59948500  0.33960500  0.59948500
   0.59948500  0.83960500  0.09948500
   0.59948500  0.83960500  0.59948500
   0.33229300  0.00011500  0.00011500
   0.33229300  0.00011500  0.50011500
   0.33229300  0.50011500  0.00011500
   0.33229300  0.50011500  0.50011500
   0.83229300  0.00011500  0.00011500
   0.83229300  0.00011500  0.50011500
   0.83229300  0.50011500  0.00011500
   0.83229300  0.50011500  0.50011500
   0.00011500  0.00011500  0.33229300
   0.00011500  0.00011500  0.83229300
   0.00011500  0.50011500  0.33229300
   0.00011500  0.50011500  0.83229300
   0.50011500  0.00011500  0.33229300
   0.50011500  0.00011500  0.83229300
   0.50011500  0.50011500  0.33229300
   0.50011500  0.50011500  0.83229300
   0.00011500  0.33229300  0.00011500
   0.00011500  0.33229300  0.50011500
   0.00011500  0.83229300  0.00011500
   0.00011500  0.83229300  0.50011500
   0.50011500  0.33229300  0.00011500
   0.50011500  0.33229300  0.50011500
   0.50011500  0.83229300  0.00011500
   0.50011500  0.83229300  0.50011500
   0.16770700  0.99988500  0.99988500
   0.16770700  0.99988500  0.49988500
   0.16770700  0.49988500  0.99988500
   0.16770700  0.49988500  0.49988500
   0.66770700  0.99988500  0.99988500
   0.66770700  0.99988500  0.49988500
   0.66770700  0.49988500  0.99988500
   0.66770700  0.49988500  0.49988500
   0.99988500  0.99988500  0.16770700
   0.99988500  0.99988500  0.66770700
   0.99988500  0.49988500  0.16770700
   0.99988500  0.49988500  0.66770700
   0.49988500  0.99988500  0.16770700
   0.49988500  0.99988500  0.66770700
   0.49988500  0.49988500  0.16770700
   0.49988500  0.49988500  0.66770700
   0.99988500  0.16770700  0.99988500
   0.99988500  0.16770700  0.49988500
   0.99988500  0.66770700  0.99988500
   0.99988500  0.66770700  0.49988500
   0.49988500  0.16770700  0.99988500
   0.49988500  0.16770700  0.49988500
   0.49988500  0.66770700  0.99988500
   0.49988500  0.66770700  0.49988500
   0.31539700  0.31539700  0.31539700
   0.31539700  0.31539700  0.81539700
   0.31539700  0.81539700  0.31539700
   0.31539700  0.81539700  0.81539700
   0.81539700  0.31539700  0.31539700
   0.81539700  0.31539700  0.81539700
   0.81539700  0.81539700  0.31539700
   0.81539700  0.81539700  0.81539700
   0.18460300  0.18460300  0.18460300
   0.18460300  0.18460300  0.68460300
   0.18460300  0.68460300  0.18460300
   0.18460300  0.68460300  0.68460300
   0.68460300  0.18460300  0.18460300
   0.68460300  0.18460300  0.68460300
   0.68460300  0.68460300  0.18460300
   0.68460300  0.68460300  0.68460300
 
 position of ions in cartesian coordinates  (Angst):
   2.67069617  4.82760614  6.45870683
   2.71956767  5.79646864 11.55506933
   4.06868567  9.71572664  8.57702133
   4.11755717 10.68458914 13.67338383
   7.38317817  5.25151914  8.57702133
   7.43204967  6.22038164 13.67338383
   8.78116767 10.13963964 10.69533583
   8.83003917 11.10850214 15.79169833
   4.91034847  4.56589960  5.02852905
   4.95921997  5.53476210 10.12489155
   6.30833797  9.45402010  7.14684355
   6.35720947 10.42288260 12.24320605
   9.62283047  4.98981260  7.14684355
   9.67170197  5.95867510 12.24320605
  11.02081997  9.87793310  9.26515805
  11.06969147 10.84679560 14.36152055
   4.26244805  2.68371513  6.45870683
   4.31131955  3.65257763 11.55506933
   5.66043755  7.57183563  8.57702133
   5.70930905  8.54069813 13.67338383
   8.97493005  3.10762813  8.57702133
   9.02380155  4.07649063 13.67338383
  10.37291955  7.99574863 10.69533583
  10.42179105  8.96461113 15.79169833
   3.48864683  1.45328986  2.87428467
   3.53751833  2.42215236  7.97064717
   4.88663633  6.34141036  4.99259917
   4.93550783  7.31027286 10.08896167
   8.20112883  1.87720286  4.99259917
   8.25000033  2.84606536 10.08896167
   9.59911833  6.76532336  7.11091367
   9.64798983  7.73418586 12.20727617
   1.24899453  1.71499640  4.30446245
   1.29786603  2.68385890  9.40082495
   2.64698403  6.60311690  6.42277695
   2.69585553  7.57197940 11.51913945
   5.96147653  2.13890940  6.42277695
   6.01034803  3.10777190 11.51913945
   7.35946603  7.02702990  8.54109145
   7.40833753  7.99589240 13.63745395
   1.89689495  3.59718087  2.87428467
   1.94576645  4.56604337  7.97064717
   3.29488445  8.48530137  4.99259917
   3.34375595  9.45416387 10.08896167
   6.60937695  4.02109387  4.99259917
   6.65824845  4.98995637 10.08896167
   8.00736645  8.90921437  7.11091367
   8.05623795  9.87807687 12.20727617
   3.13218234  0.28307375  1.40946154
   3.18105384  1.25193625  6.50582404
   4.53017184  5.17119425  3.52777604
   4.57904334  6.14005675  8.62413854
   7.84466434  0.70698675  3.52777604
   7.89353584  1.67584925  8.62413854
   9.24265384  5.59510725  5.64609054
   9.29152534  6.56396975 10.74245304
   0.03388472  0.64511422  3.38794559
   0.08275622  1.61397672  8.48430809
   1.43187422  5.53323472  5.50626009
   1.48074572  6.50209722 10.60262259
   4.74636672  1.06902722  5.50626009
   4.79523822  2.03788972 10.60262259
   6.14435622  5.95714772  7.62457459
   6.19322772  6.92601022 12.72093709
   0.93017936  3.24889679  1.40946154
   0.97905086  4.21775929  6.50582404
   2.32816886  8.13701729  3.52777604
   2.37704036  9.10587979  8.62413854
   5.64266136  3.67280979  3.52777604
   5.69153286  4.64167229  8.62413854
   7.04065086  8.56093029  5.64609054
   7.08952236  9.52979279 10.74245304
   4.47402166 11.85480525 15.13820696
   4.42515016 10.88594275 10.04184446
   3.07603216  6.96668475 13.01989246
   3.02716066  5.99782225  7.92352996
   9.18650366 12.27871825 17.25652146
   9.13763216 11.30985575 12.16015896
   7.78851416  7.39059775 15.13820696
   7.73964266  6.42173525 10.04184446
  12.23592978 10.94781528 10.18167491
  12.28480128 11.91667778 15.27803741
  10.83794028  6.05969478  8.06336041
  10.88681178  7.02855728 13.15972291
   7.52344778 10.52390228  8.06336041
   7.57231928 11.49276478 13.15972291
   6.12545828  5.63578178  5.94504591
   6.17432978  6.60464428 11.04140841
   9.99051714  4.42477471 15.13820696
   9.94164564  3.45591221 10.04184446
  11.38850664  9.31289521 17.25652146
  11.33963514  8.34403271 12.16015896
   5.27803514  4.00086171 13.01989246
   5.22916364  3.03199921  7.92352996
   6.67602464  8.88898221 15.13820696
   6.62715314  7.92011971 10.04184446
   3.88527661  3.96195151  5.88719504
   3.93414811  4.93081401 10.98355754
   5.28326611  8.85007201  8.00550954
   5.33213761  9.81893451 13.10187204
   8.59775861  4.38586451  8.00550954
   8.64663011  5.35472701 13.10187204
   9.99574811  9.27398501 10.12382404
  10.04461961 10.24284751 15.22018654
   2.27406639  2.31894449  3.44579646
   2.32293789  3.28780699  8.54215896
   3.67205589  7.20706499  5.56411096
   3.72092739  8.17592749 10.66047346
   6.98654839  2.74285749  5.56411096
   7.03541989  3.71171999 10.66047346
   8.38453789  7.63097799  7.68242546
   8.43340939  8.59984049 12.77878796
 


--------------------------------------------------------------------------------------------------------


 k-point   1 :   0.0000 0.0000 0.0000  plane waves:   35999
 k-point   2 :   0.5000 0.0000 0.0000  plane waves:   36052
 k-point   3 :   0.0000 0.5000 0.0000  plane waves:   36032
 k-point   4 :   0.5000 0.5000 0.0000  plane waves:   36038
 k-point   5 :   0.0000 0.0000 0.5000  plane waves:   36030
 k-point   6 :   0.5000 0.0000 0.5000  plane waves:   36004
 k-point   7 :   0.0000 0.5000 0.5000  plane waves:   36058
 k-point   8 :   0.5000 0.5000 0.5000  plane waves:   35984

 maximum and minimum number of plane-waves per node :     36058    35984

 maximum number of plane-waves:     36058
 maximum index in each direction: 
   IXMAX=   22   IYMAX=   23   IZMAX=   22
   IXMIN=  -22   IYMIN=  -24   IZMIN=  -22


 serial   3D FFT for wavefunctions
 parallel 3D FFT for charge:
    minimum data exchange during FFTs selected (reduces bandwidth)


 total amount of memory used by VASP MPI-rank0  1781673. kBytes
=======================================================================

   base      :      30000. kBytes
   nonlr-proj:      52854. kBytes
   fftplans  :     213988. kBytes
   grid      :     382371. kBytes
   one-center:        344. kBytes
   wavefun   :    1102116. kBytes
 
     INWAV:  cpu time    0.0002: real time    0.0003
 Broyden mixing: mesh for mixing (old mesh)
   NGX = 45   NGY = 47   NGZ = 45
  (NGX  =180   NGY  =192   NGZ  =180)
  gives a total of  95175 points

 initial charge density was supplied:
 charge density of overlapping atoms calculated
 number of electron     352.0000000 magnetization 
 keeping initial charge density in first step


--------------------------------------------------------------------------------------------------------


 Maximum index for non-local projection operator          5473
 Maximum index for augmentation-charges         13758 (set IRDMAX)


--------------------------------------------------------------------------------------------------------


 First call to EWALD:  gamma=   0.187
 Maximum number of real-space cells 3x 3x 3
 Maximum number of reciprocal cells 3x 3x 3

    FEWALD:  cpu time    0.0682: real time    0.0682


--------------------------------------- Iteration      1(   1)  ---------------------------------------


    POTLOK:  cpu time    0.1585: real time    0.1586
    SETDIJ:  cpu time    0.1306: real time    0.1305
     EDDAV:  cpu time    6.3842: real time    6.3856
 BZINTS: Fermi energy:   16.470294;  352.000000 electrons
         Band energy: 0.125378E+04;  BLOECHL correction:   -0.001538
       DOS:  cpu time    0.0244: real time    0.0244
    --------------------------------------------
      LOOP:  cpu time    6.6977: real time    6.6991

 eigenvalue-minimisations  :  3728
 total energy-change (2. order) : 0.1410059E+04  (-0.1984357E+05)
 number of electron     352.0000000 magnetization 
 augmentation part      352.0000000 magnetization 

 Free energy of the ion-electron system (eV)
  ---------------------------------------------------
  alpha Z        PSCENC =      1039.31075515
  Ewald energy   TEWEN  =     -9911.23676837
  -Hartree energ DENC   =     -1135.12970822
  -exchange      EXHF   =         0.00000000
  -V(xc)+E(xc)   XCENC  =       903.58030006
  PAW double counting   =      5912.33983061    -5839.33960861
  entropy T*S    EENTRO =         0.00000000
  eigenvalues    EBANDS =      1253.77955210
  atomic energy  EATOM  =      9186.75495500
  Solvation  Ediel_sol  =         0.00000000
  ---------------------------------------------------
  free energy    TOTEN  =      1410.05930773 eV

  energy without entropy =     1410.05930773  energy(sigma->0) =     1410.05930773


--------------------------------------------------------------------------------------------------------




--------------------------------------- Iteration      1(   2)  ---------------------------------------


     EDDAV:  cpu time    7.4675: real time    7.4662
 BZINTS: Fermi energy:    4.160075;  352.000000 electrons
         Band energy:-0.848591E+03;  BLOECHL correction:   -0.056295
       DOS:  cpu time    0.0313: real time    0.0313
    --------------------------------------------
      LOOP:  cpu time    7.4988: real time    7.4975

 eigenvalue-minimisations  :  4624
 total energy-change (2. order) :-0.2102371E+04  (-0.1982829E+04)
 number of electron     352.0000000 magnetization 
 augmentation part      352.0000000 magnetization 

 Free energy of the ion-electron system (eV)
  ---------------------------------------------------
  alpha Z        PSCENC =      1039.31075515
  Ewald energy   TEWEN  =     -9911.23676837
  -Hartree energ DENC   =     -1135.12970822
  -exchange      EXHF   =         0.00000000
  -V(xc)+E(xc)   XCENC  =       903.58030006
  PAW double counting   =      5912.33983061    -5839.33960861
  entropy T*S    EENTRO =         0.00000000
  eigenvalues    EBANDS =      -848.59146933
  atomic energy  EATOM  =      9186.75495500
  Solvation  Ediel_sol  =         0.00000000
  ---------------------------------------------------
  free energy    TOTEN  =      -692.31171370 eV

  energy without entropy =     -692.31171370  energy(sigma->0) =     -692.31171370


--------------------------------------------------------------------------------------------------------




--------------------------------------- Iteration      1(   3)  ---------------------------------------


     EDDAV:  cpu time    7.2839: real time    7.2851
 BZINTS: Fermi energy:    3.158156;  352.000000 electrons
         Band energy:-0.979057E+03;  BLOECHL correction:   -0.000000
       DOS:  cpu time    0.0236: real time    0.0236
    --------------------------------------------
      LOOP:  cpu time    7.3075: real time    7.3087

 eigenvalue-minimisations  :  4456
 total energy-change (2. order) :-0.1304658E+03  (-0.1264994E+03)
 number of electron     352.0000000 magnetization 
 augmentation part      352.0000000 magnetization 

 Free energy of the ion-electron system (eV)
  ---------------------------------------------------
  alpha Z        PSCENC =      1039.31075515
  Ewald energy   TEWEN  =     -9911.23676837
  -Hartree energ DENC   =     -1135.12970822
  -exchange      EXHF   =         0.00000000
  -V(xc)+E(xc)   XCENC  =       903.58030006
  PAW double counting   =      5912.33983061    -5839.33960861
  entropy T*S    EENTRO =         0.00000000
  eigenvalues    EBANDS =      -979.05722481
  atomic energy  EATOM  =      9186.75495500
  Solvation  Ediel_sol  =         0.00000000
  ---------------------------------------------------
  free energy    TOTEN  =      -822.77746918 eV

  energy without entropy =     -822.77746918  energy(sigma->0) =     -822.77746918


--------------------------------------------------------------------------------------------------------




--------------------------------------- Iteration      1(   4)  ---------------------------------------


     EDDAV:  cpu time    7.1756: real time    7.1750
 BZINTS: Fermi energy:    3.129662;  352.000000 electrons
         Band energy:-0.982190E+03;  BLOECHL correction:   -0.000000
       DOS:  cpu time    0.0248: real time    0.0248
    --------------------------------------------
      LOOP:  cpu time    7.2004: real time    7.1997

 eigenvalue-minimisations  :  4392
 total energy-change (2. order) :-0.3132984E+01  (-0.3111569E+01)
 number of electron     352.0000000 magnetization 
 augmentation part      352.0000000 magnetization 

 Free energy of the ion-electron system (eV)
  ---------------------------------------------------
  alpha Z        PSCENC =      1039.31075515
  Ewald energy   TEWEN  =     -9911.23676837
  -Hartree energ DENC   =     -1135.12970822
  -exchange      EXHF   =         0.00000000
  -V(xc)+E(xc)   XCENC  =       903.58030006
  PAW double counting   =      5912.33983061    -5839.33960861
  entropy T*S    EENTRO =         0.00000000
  eigenvalues    EBANDS =      -982.19020876
  atomic energy  EATOM  =      9186.75495500
  Solvation  Ediel_sol  =         0.00000000
  ---------------------------------------------------
  free energy    TOTEN  =      -825.91045313 eV

  energy without entropy =     -825.91045313  energy(sigma->0) =     -825.91045313


--------------------------------------------------------------------------------------------------------




--------------------------------------- Iteration      1(   5)  ---------------------------------------


     EDDAV:  cpu time    7.2132: real time    7.2160
 BZINTS: Fermi energy:    3.128153;  352.000000 electrons
         Band energy:-0.982280E+03;  BLOECHL correction:    0.000000
       DOS:  cpu time    0.0242: real time    0.0242
    CHARGE:  cpu time    1.7542: real time    1.7543
    MIXING:  cpu time    0.0631: real time    0.0630
    --------------------------------------------
      LOOP:  cpu time    9.0547: real time    9.0575

 eigenvalue-minimisations  :  4448
 total energy-change (2. order) :-0.8933703E-01  (-0.8912937E-01)
 number of electron     351.9999997 magnetization 
 augmentation part        0.7804373 magnetization 

 Broyden mixing:
  rms(total) = 0.40504E+01    rms(broyden)= 0.40504E+01
  rms(prec ) = 0.54654E+01
  weight for this iteration     100.00

 Free energy of the ion-electron system (eV)
  ---------------------------------------------------
  alpha Z        PSCENC =      1039.31075515
  Ewald energy   TEWEN  =     -9911.23676837
  -Hartree energ DENC   =     -1135.12970822
  -exchange      EXHF   =         0.00000000
  -V(xc)+E(xc)   XCENC  =       903.58030006
  PAW double counting   =      5912.33983061    -5839.33960861
  entropy T*S    EENTRO =         0.00000000
  eigenvalues    EBANDS =      -982.27954579
  atomic energy  EATOM  =      9186.75495500
  Solvation  Ediel_sol  =         0.00000000
  ---------------------------------------------------
  free energy    TOTEN  =      -825.99979016 eV

  energy without entropy =     -825.99979016  energy(sigma->0) =     -825.99979016


--------------------------------------------------------------------------------------------------------




--------------------------------------- Iteration      1(   6)  ---------------------------------------


    POTLOK:  cpu time    0.1383: real time    0.1384
    SETDIJ:  cpu time    0.1157: real time    0.1156
    EDDIAG:  cpu time    1.3608: real time    1.3608
  RMM-DIIS:  cpu time    5.7658: real time    5.7351
    ORTHCH:  cpu time    0.0357: real time    0.0357
 BZINTS: Fermi energy:    3.865455;  352.000000 electrons
         Band energy:-0.737208E+03;  BLOECHL correction:   -0.052397
       DOS:  cpu time    0.0357: real time    0.0357
    CHARGE:  cpu time    1.7023: real time    1.7021
    MIXING:  cpu time    0.0640: real time    0.0640
    --------------------------------------------
      LOOP:  cpu time    9.2183: real time    9.1873

 eigenvalue-minimisations  :  3728
 total energy-change (2. order) : 0.4069232E+02  (-0.3789858E+01)
 number of electron     351.9999997 magnetization 
 augmentation part        0.6605014 magnetization 

 Broyden mixing:
  rms(total) = 0.22674E+01    rms(broyden)= 0.22674E+01
  rms(prec ) = 0.29194E+01
  weight for this iteration     100.00

 eigenvalues of (default mixing * dielectric matrix)
  average eigenvalue GAMMA=   2.1510
  2.1510

 Free energy of the ion-electron system (eV)
  ---------------------------------------------------
  alpha Z        PSCENC =      1039.31075515
  Ewald energy   TEWEN  =     -9911.23676837
  -Hartree energ DENC   =     -1346.89554590
  -exchange      EXHF   =         0.00000000
  -V(xc)+E(xc)   XCENC  =       916.59545307
  PAW double counting   =     13828.76655910   -13761.39506135
  entropy T*S    EENTRO =         0.00000000
  eigenvalues    EBANDS =      -737.20781592
  atomic energy  EATOM  =      9186.75495500
  Solvation  Ediel_sol  =         0.00000000
  ---------------------------------------------------
  free energy    TOTEN  =      -785.30746921 eV

  energy without entropy =     -785.30746921  energy(sigma->0) =     -785.30746921


--------------------------------------------------------------------------------------------------------




--------------------------------------- Iteration      1(   7)  ---------------------------------------


    POTLOK:  cpu time    0.1314: real time    0.1313
    SETDIJ:  cpu time    0.1288: real time    0.1288
    EDDIAG:  cpu time    1.3592: real time    1.3598
  RMM-DIIS:  cpu time    5.7630: real time    5.7322
    ORTHCH:  cpu time    0.0347: real time    0.0347
 BZINTS: Fermi energy:    4.718180;  352.000000 electrons
         Band energy:-0.490421E+03;  BLOECHL correction:   -0.024064
       DOS:  cpu time    0.0295: real time    0.0297
    CHARGE:  cpu time    1.7155: real time    1.7150
    MIXING:  cpu time    0.0710: real time    0.0710
    --------------------------------------------
      LOOP:  cpu time    9.2331: real time    9.2024

 eigenvalue-minimisations  :  3728
 total energy-change (2. order) : 0.1151551E+02  (-0.4637527E+01)
 number of electron     351.9999997 magnetization 
 augmentation part        0.4550374 magnetization 

 Broyden mixing:
  rms(total) = 0.50915E+00    rms(broyden)= 0.50914E+00
  rms(prec ) = 0.61999E+00
  weight for this iteration     100.00

 eigenvalues of (default mixing * dielectric matrix)
  average eigenvalue GAMMA=   1.7761
  1.4323  2.1198

 Free energy of the ion-electron system (eV)
  ---------------------------------------------------
  alpha Z        PSCENC =      1039.31075515
  Ewald energy   TEWEN  =     -9911.23676837
  -Hartree energ DENC   =     -1594.35960003
  -exchange      EXHF   =         0.00000000
  -V(xc)+E(xc)   XCENC  =       934.27413138
  PAW double counting   =     28946.22586492   -28884.33980267
  entropy T*S    EENTRO =         0.00000000
  eigenvalues    EBANDS =      -490.42149587
  atomic energy  EATOM  =      9186.75495500
  Solvation  Ediel_sol  =         0.00000000
  ---------------------------------------------------
  free energy    TOTEN  =      -773.79196049 eV

  energy without entropy =     -773.79196049  energy(sigma->0) =     -773.79196049


--------------------------------------------------------------------------------------------------------




--------------------------------------- Iteration      1(   8)  ---------------------------------------


    POTLOK:  cpu time    0.1417: real time    0.1418
    SETDIJ:  cpu time    0.1155: real time    0.1156
    EDDIAG:  cpu time    1.3657: real time    1.3655
  RMM-DIIS:  cpu time    5.7499: real time    5.7197
    ORTHCH:  cpu time    0.0346: real time    0.0346
 BZINTS: Fermi energy:    4.643140;  352.000000 electrons
         Band energy:-0.496253E+03;  BLOECHL correction:   -0.031254
       DOS:  cpu time    0.0302: real time    0.0302
    CHARGE:  cpu time    1.7313: real time    1.7308
    MIXING:  cpu time    0.0648: real time    0.0648
    --------------------------------------------
      LOOP:  cpu time    9.2337: real time    9.2028

 eigenvalue-minimisations  :  3728
 total energy-change (2. order) :-0.6473725E-01  (-0.3884045E+00)
 number of electron     351.9999997 magnetization 
 augmentation part        0.4168181 magnetization 

 Broyden mixing:
  rms(total) = 0.24457E+00    rms(broyden)= 0.24457E+00
  rms(prec ) = 0.27851E+00
  weight for this iteration     100.00

 eigenvalues of (default mixing * dielectric matrix)
  average eigenvalue GAMMA=   1.7651
  1.1680  2.4242  1.7031

 Free energy of the ion-electron system (eV)
  ---------------------------------------------------
  alpha Z        PSCENC =      1039.31075515
  Ewald energy   TEWEN  =     -9911.23676837
  -Hartree energ DENC   =     -1589.39678153
  -exchange      EXHF   =         0.00000000
  -V(xc)+E(xc)   XCENC  =       934.86347036
  PAW double counting   =     31774.88479275   -31712.78388418
  entropy T*S    EENTRO =         0.00000000
  eigenvalues    EBANDS =      -496.25323692
  atomic energy  EATOM  =      9186.75495500
  Solvation  Ediel_sol  =         0.00000000
  ---------------------------------------------------
  free energy    TOTEN  =      -773.85669773 eV

  energy without entropy =     -773.85669773  energy(sigma->0) =     -773.85669773


--------------------------------------------------------------------------------------------------------




--------------------------------------- Iteration      1(   9)  ---------------------------------------


    POTLOK:  cpu time    0.1319: real time    0.1321
    SETDIJ:  cpu time    0.1151: real time    0.1151
    EDDIAG:  cpu time    1.3623: real time    1.3621
  RMM-DIIS:  cpu time    5.8327: real time    5.7960
    ORTHCH:  cpu time    0.0349: real time    0.0349
 BZINTS: Fermi energy:    4.653827;  352.000000 electrons
         Band energy:-0.489039E+03;  BLOECHL correction:   -0.031264
       DOS:  cpu time    0.0300: real time    0.0300
    CHARGE:  cpu time    1.6992: real time    1.6990
    MIXING:  cpu time    0.0656: real time    0.0656
    --------------------------------------------
      LOOP:  cpu time    9.2718: real time    9.2348

 eigenvalue-minimisations  :  3763
 total energy-change (2. order) :-0.6776101E-01  (-0.7110235E-01)
 number of electron     351.9999997 magnetization 
 augmentation part        0.3892363 magnetization 

 Broyden mixing:
  rms(total) = 0.92928E-01    rms(broyden)= 0.92927E-01
  rms(prec ) = 0.11176E+00
  weight for this iteration     100.00

 eigenvalues of (default mixing * dielectric matrix)
  average eigenvalue GAMMA=   1.7586
  2.3796  2.3796  1.1377  1.1377

 Free energy of the ion-electron system (eV)
  ---------------------------------------------------
  alpha Z        PSCENC =      1039.31075515
  Ewald energy   TEWEN  =     -9911.23676837
  -Hartree energ DENC   =     -1597.65197128
  -exchange      EXHF   =         0.00000000
  -V(xc)+E(xc)   XCENC  =       935.81577214
  PAW double counting   =     33984.71437712   -33922.59276743
  entropy T*S    EENTRO =         0.00000000
  eigenvalues    EBANDS =      -489.03881108
  atomic energy  EATOM  =      9186.75495500
  Solvation  Ediel_sol  =         0.00000000
  ---------------------------------------------------
  free energy    TOTEN  =      -773.92445875 eV

  energy without entropy =     -773.92445875  energy(sigma->0) =     -773.92445875


--------------------------------------------------------------------------------------------------------




--------------------------------------- Iteration      1(  10)  ---------------------------------------


    POTLOK:  cpu time    0.1329: real time    0.1330
    SETDIJ:  cpu time    0.1214: real time    0.1214
    EDDIAG:  cpu time    1.3653: real time    1.3651
  RMM-DIIS:  cpu time    5.7748: real time    5.7431
    ORTHCH:  cpu time    0.0347: real time    0.0347
 BZINTS: Fermi energy:    4.637267;  352.000000 electrons
         Band energy:-0.495750E+03;  BLOECHL correction:   -0.031491
       DOS:  cpu time    0.0286: real time    0.0286
    CHARGE:  cpu time    1.7254: real time    1.7251
    MIXING:  cpu time    0.0751: real time    0.0751
    --------------------------------------------
      LOOP:  cpu time    9.2583: real time    9.2260

 eigenvalue-minimisations  :  3732
 total energy-change (2. order) :-0.3359953E-02  (-0.1272402E-01)
 number of electron     351.9999997 magnetization 
 augmentation part        0.3848490 magnetization 

 Broyden mixing:
  rms(total) = 0.24792E-01    rms(broyden)= 0.24792E-01
  rms(prec ) = 0.31839E-01
  weight for this iteration     100.00

 eigenvalues of (default mixing * dielectric matrix)
  average eigenvalue GAMMA=   1.6653
  2.4394  2.4394  1.3017  1.2416  0.9045

 Free energy of the ion-electron system (eV)
  ---------------------------------------------------
  alpha Z        PSCENC =      1039.31075515
  Ewald energy   TEWEN  =     -9911.23676837
  -Hartree energ DENC   =     -1590.74890400
  -exchange      EXHF   =         0.00000000
  -V(xc)+E(xc)   XCENC  =       935.34950579
  PAW double counting   =     34065.64893180   -34003.25597725
  entropy T*S    EENTRO =         0.00000000
  eigenvalues    EBANDS =      -495.75031683
  atomic energy  EATOM  =      9186.75495500
  Solvation  Ediel_sol  =         0.00000000
  ---------------------------------------------------
  free energy    TOTEN  =      -773.92781870 eV

  energy without entropy =     -773.92781870  energy(sigma->0) =     -773.92781870


--------------------------------------------------------------------------------------------------------




--------------------------------------- Iteration      1(  11)  ---------------------------------------


    POTLOK:  cpu time    0.1395: real time    0.1395
    SETDIJ:  cpu time    0.1169: real time    0.1169
    EDDIAG:  cpu time    1.3609: real time    1.3608
  RMM-DIIS:  cpu time    5.9298: real time    5.8947
    ORTHCH:  cpu time    0.0346: real time    0.0346
 BZINTS: Fermi energy:    4.643665;  352.000000 electrons
         Band energy:-0.494006E+03;  BLOECHL correction:   -0.031151
       DOS:  cpu time    0.0304: real time    0.0305
    CHARGE:  cpu time    1.7085: real time    1.7079
    MIXING:  cpu time    0.0804: real time    0.0806
    --------------------------------------------
      LOOP:  cpu time    9.4009: real time    9.3654

 eigenvalue-minimisations  :  3819
 total energy-change (2. order) :-0.3537198E-02  (-0.3389806E-02)
 number of electron     351.9999997 magnetization 
 augmentation part        0.3798347 magnetization 

 Broyden mixing:
  rms(total) = 0.10448E-01    rms(broyden)= 0.10448E-01
  rms(prec ) = 0.14073E-01
  weight for this iteration     100.00

 eigenvalues of (default mixing * dielectric matrix)
  average eigenvalue GAMMA=   1.6739
  2.3643  2.3643  1.6927  1.6927  0.9645  0.9645

 Free energy of the ion-electron system (eV)
  ---------------------------------------------------
  alpha Z        PSCENC =      1039.31075515
  Ewald energy   TEWEN  =     -9911.23676837
  -Hartree energ DENC   =     -1592.64458089
  -exchange      EXHF   =         0.00000000
  -V(xc)+E(xc)   XCENC  =       935.50118961
  PAW double counting   =     34319.02905331   -34256.63974006
  entropy T*S    EENTRO =         0.00000000
  eigenvalues    EBANDS =      -494.00621966
  atomic energy  EATOM  =      9186.75495500
  Solvation  Ediel_sol  =         0.00000000
  ---------------------------------------------------
  free energy    TOTEN  =      -773.93135590 eV

  energy without entropy =     -773.93135590  energy(sigma->0) =     -773.93135590


--------------------------------------------------------------------------------------------------------




--------------------------------------- Iteration      1(  12)  ---------------------------------------


    POTLOK:  cpu time    0.1326: real time    0.1326
    SETDIJ:  cpu time    0.1163: real time    0.1164
    EDDIAG:  cpu time    1.3673: real time    1.3670
  RMM-DIIS:  cpu time    5.8553: real time    5.8235
    ORTHCH:  cpu time    0.0352: real time    0.0352
 BZINTS: Fermi energy:    4.643336;  352.000000 electrons
         Band energy:-0.493554E+03;  BLOECHL correction:   -0.031412
       DOS:  cpu time    0.0358: real time    0.0358
    CHARGE:  cpu time    1.7066: real time    1.7060
    MIXING:  cpu time    0.0691: real time    0.0692
    --------------------------------------------
      LOOP:  cpu time    9.3181: real time    9.2856

 eigenvalue-minimisations  :  3781
 total energy-change (2. order) :-0.6134267E-03  (-0.6062929E-03)
 number of electron     351.9999997 magnetization 
 augmentation part        0.3776794 magnetization 

 Broyden mixing:
  rms(total) = 0.55822E-02    rms(broyden)= 0.55822E-02
  rms(prec ) = 0.76889E-02
  weight for this iteration     100.00

 eigenvalues of (default mixing * dielectric matrix)
  average eigenvalue GAMMA=   1.6491
  2.5864  2.5864  1.7707  1.3328  1.3328  0.9672  0.9672

 Free energy of the ion-electron system (eV)
  ---------------------------------------------------
  alpha Z        PSCENC =      1039.31075515
  Ewald energy   TEWEN  =     -9911.23676837
  -Hartree energ DENC   =     -1593.12288015
  -exchange      EXHF   =         0.00000000
  -V(xc)+E(xc)   XCENC  =       935.53863953
  PAW double counting   =     34282.75940064   -34220.38200597
  entropy T*S    EENTRO =         0.00000000
  eigenvalues    EBANDS =      -493.55406516
  atomic energy  EATOM  =      9186.75495500
  Solvation  Ediel_sol  =         0.00000000
  ---------------------------------------------------
  free energy    TOTEN  =      -773.93196932 eV

  energy without entropy =     -773.93196932  energy(sigma->0) =     -773.93196932


--------------------------------------------------------------------------------------------------------




--------------------------------------- Iteration      1(  13)  ---------------------------------------


    POTLOK:  cpu time    0.1315: real time    0.1316
    SETDIJ:  cpu time    0.1249: real time    0.1249
    EDDIAG:  cpu time    1.3725: real time    1.3721
  RMM-DIIS:  cpu time    5.9487: real time    5.9134
    ORTHCH:  cpu time    0.0346: real time    0.0346
 BZINTS: Fermi energy:    4.644500;  352.000000 electrons
         Band energy:-0.493490E+03;  BLOECHL correction:   -0.031285
       DOS:  cpu time    0.0302: real time    0.0302
    CHARGE:  cpu time    1.7112: real time    1.7109
    MIXING:  cpu time    0.0696: real time    0.0696
    --------------------------------------------
      LOOP:  cpu time    9.4233: real time    9.3873

 eigenvalue-minimisations  :  3806
 total energy-change (2. order) :-0.6292612E-04  (-0.1585224E-03)
 number of electron     351.9999997 magnetization 
 augmentation part        0.3768878 magnetization 

 Broyden mixing:
  rms(total) = 0.21626E-02    rms(broyden)= 0.21625E-02
  rms(prec ) = 0.29300E-02
  weight for this iteration     100.00

 eigenvalues of (default mixing * dielectric matrix)
  average eigenvalue GAMMA=   1.6881
  2.7199  2.7199  1.8998  1.8998  1.2032  1.2032  0.9296  0.9296

 Free energy of the ion-electron system (eV)
  ---------------------------------------------------
  alpha Z        PSCENC =      1039.31075515
  Ewald energy   TEWEN  =     -9911.23676837
  -Hartree energ DENC   =     -1593.19891454
  -exchange      EXHF   =         0.00000000
  -V(xc)+E(xc)   XCENC  =       935.53951568
  PAW double counting   =     34301.63904723   -34239.25080608
  entropy T*S    EENTRO =         0.00000000
  eigenvalues    EBANDS =      -493.48981632
  atomic energy  EATOM  =      9186.75495500
  Solvation  Ediel_sol  =         0.00000000
  ---------------------------------------------------
  free energy    TOTEN  =      -773.93203225 eV

  energy without entropy =     -773.93203225  energy(sigma->0) =     -773.93203225


--------------------------------------------------------------------------------------------------------




--------------------------------------- Iteration      1(  14)  ---------------------------------------


    POTLOK:  cpu time    0.1324: real time    0.1326
    SETDIJ:  cpu time    0.1156: real time    0.1156
    EDDIAG:  cpu time    1.3626: real time    1.3625
  RMM-DIIS:  cpu time    6.0214: real time    5.9850
    ORTHCH:  cpu time    0.0346: real time    0.0346
 BZINTS: Fermi energy:    4.644272;  352.000000 electrons
         Band energy:-0.493463E+03;  BLOECHL correction:   -0.031305
       DOS:  cpu time    0.0301: real time    0.0300
    CHARGE:  cpu time    1.7358: real time    1.7353
    MIXING:  cpu time    0.0807: real time    0.0807
    --------------------------------------------
      LOOP:  cpu time    9.5130: real time    9.4762

 eigenvalue-minimisations  :  3878
 total energy-change (2. order) :-0.5880523E-04  (-0.3342861E-04)
 number of electron     351.9999997 magnetization 
 augmentation part        0.3765251 magnetization 

 Broyden mixing:
  rms(total) = 0.12422E-02    rms(broyden)= 0.12422E-02
  rms(prec ) = 0.16019E-02
  weight for this iteration     100.00

 eigenvalues of (default mixing * dielectric matrix)
  average eigenvalue GAMMA=   1.6558
  3.0388  2.5581  2.0773  2.0773  1.2367  1.2367  0.9248  0.9248  0.8279

 Free energy of the ion-electron system (eV)
  ---------------------------------------------------
  alpha Z        PSCENC =      1039.31075515
  Ewald energy   TEWEN  =     -9911.23676837
  -Hartree energ DENC   =     -1593.23106517
  -exchange      EXHF   =         0.00000000
  -V(xc)+E(xc)   XCENC  =       935.54482647
  PAW double counting   =     34301.04649176   -34238.65843419
  entropy T*S    EENTRO =         0.00000000
  eigenvalues    EBANDS =      -493.46285171
  atomic energy  EATOM  =      9186.75495500
  Solvation  Ediel_sol  =         0.00000000
  ---------------------------------------------------
  free energy    TOTEN  =      -773.93209106 eV

  energy without entropy =     -773.93209106  energy(sigma->0) =     -773.93209106


--------------------------------------------------------------------------------------------------------




--------------------------------------- Iteration      1(  15)  ---------------------------------------


    POTLOK:  cpu time    0.1391: real time    0.1399
    SETDIJ:  cpu time    0.1156: real time    0.1156
    EDDIAG:  cpu time    1.3574: real time    1.3572
  RMM-DIIS:  cpu time    5.8653: real time    5.8361
    ORTHCH:  cpu time    0.0347: real time    0.0347
 BZINTS: Fermi energy:    4.644453;  352.000000 electrons
         Band energy:-0.493370E+03;  BLOECHL correction:   -0.031310
       DOS:  cpu time    0.0298: real time    0.0298
    CHARGE:  cpu time    1.7058: real time    1.7056
    MIXING:  cpu time    0.0738: real time    0.0738
    --------------------------------------------
      LOOP:  cpu time    9.3215: real time    9.2926

 eigenvalue-minimisations  :  3798
 total energy-change (2. order) :-0.1194388E-04  (-0.8497963E-05)
 number of electron     351.9999997 magnetization 
 augmentation part        0.3762919 magnetization 

 Broyden mixing:
  rms(total) = 0.29946E-03    rms(broyden)= 0.29945E-03
  rms(prec ) = 0.49466E-03
  weight for this iteration     100.00

 eigenvalues of (default mixing * dielectric matrix)
  average eigenvalue GAMMA=   1.6544
  3.1783  2.4601  2.4601  1.6634  1.6634  1.2077  1.2077  0.8559  0.9238  0.9238

 Free energy of the ion-electron system (eV)
  ---------------------------------------------------
  alpha Z        PSCENC =      1039.31075515
  Ewald energy   TEWEN  =     -9911.23676837
  -Hartree energ DENC   =     -1593.32871946
  -exchange      EXHF   =         0.00000000
  -V(xc)+E(xc)   XCENC  =       935.55253369
  PAW double counting   =     34299.64157565   -34237.25602568
  entropy T*S    EENTRO =         0.00000000
  eigenvalues    EBANDS =      -493.37040899
  atomic energy  EATOM  =      9186.75495500
  Solvation  Ediel_sol  =         0.00000000
  ---------------------------------------------------
  free energy    TOTEN  =      -773.93210300 eV

  energy without entropy =     -773.93210300  energy(sigma->0) =     -773.93210300


--------------------------------------------------------------------------------------------------------




--------------------------------------- Iteration      1(  16)  ---------------------------------------


    POTLOK:  cpu time    0.1318: real time    0.1413
    SETDIJ:  cpu time    0.1155: real time    0.1154
    EDDIAG:  cpu time    1.3617: real time    1.3616
  RMM-DIIS:  cpu time    5.8784: real time    5.8438
    ORTHCH:  cpu time    0.0348: real time    0.0348
 BZINTS: Fermi energy:    4.644620;  352.000000 electrons
         Band energy:-0.493345E+03;  BLOECHL correction:   -0.031299
       DOS:  cpu time    0.0348: real time    0.0348
    CHARGE:  cpu time    1.6967: real time    1.6963
    MIXING:  cpu time    0.0729: real time    0.0729
    --------------------------------------------
      LOOP:  cpu time    9.3266: real time    9.3009

 eigenvalue-minimisations  :  3789
 total energy-change (2. order) : 0.7086001E-05  (-0.2170547E-05)
 number of electron     351.9999997 magnetization 
 augmentation part        0.3761524 magnetization 

 Broyden mixing:
  rms(total) = 0.19797E-03    rms(broyden)= 0.19797E-03
  rms(prec ) = 0.27848E-03
  weight for this iteration     100.00

 eigenvalues of (default mixing * dielectric matrix)
  average eigenvalue GAMMA=   1.6134
  3.3419  2.4955  2.2738  1.7743  1.7743  1.2370  1.2370  0.9373  0.9373  0.9273
  0.8119

 Free energy of the ion-electron system (eV)
  ---------------------------------------------------
  alpha Z        PSCENC =      1039.31075515
  Ewald energy   TEWEN  =     -9911.23676837
  -Hartree energ DENC   =     -1593.35492051
  -exchange      EXHF   =         0.00000000
  -V(xc)+E(xc)   XCENC  =       935.55381807
  PAW double counting   =     34300.21124366   -34237.82612615
  entropy T*S    EENTRO =         0.00000000
  eigenvalues    EBANDS =      -493.34505277
  atomic energy  EATOM  =      9186.75495500
  Solvation  Ediel_sol  =         0.00000000
  ---------------------------------------------------
  free energy    TOTEN  =      -773.93209591 eV

  energy without entropy =     -773.93209591  energy(sigma->0) =     -773.93209591


--------------------------------------------------------------------------------------------------------




--------------------------------------- Iteration      1(  17)  ---------------------------------------


    POTLOK:  cpu time    0.1316: real time    0.1316
    SETDIJ:  cpu time    0.1254: real time    0.1253
    EDDIAG:  cpu time    1.3534: real time    1.3532
  RMM-DIIS:  cpu time    4.3406: real time    4.3247
    ORTHCH:  cpu time    0.0346: real time    0.0346
 BZINTS: Fermi energy:    4.644562;  352.000000 electrons
         Band energy:-0.493362E+03;  BLOECHL correction:   -0.031300
       DOS:  cpu time    0.0300: real time    0.0300
    CHARGE:  cpu time    1.7144: real time    1.7140
    MIXING:  cpu time    0.0822: real time    0.0822
    --------------------------------------------
      LOOP:  cpu time    7.8122: real time    7.7957

 eigenvalue-minimisations  :  2751
 total energy-change (2. order) :-0.2005428E-05  (-0.3628336E-06)
 number of electron     351.9999997 magnetization 
 augmentation part        0.3761253 magnetization 

 Broyden mixing:
  rms(total) = 0.66433E-04    rms(broyden)= 0.66430E-04
  rms(prec ) = 0.85938E-04
  weight for this iteration     100.00

 eigenvalues of (default mixing * dielectric matrix)
  average eigenvalue GAMMA=   1.6652
  3.5079  2.6451  2.2893  1.9639  1.9639  1.3265  1.3265  1.0829  1.0829  0.9859
  0.9859  0.8216

 Free energy of the ion-electron system (eV)
  ---------------------------------------------------
  alpha Z        PSCENC =      1039.31075515
  Ewald energy   TEWEN  =     -9911.23676837
  -Hartree energ DENC   =     -1593.33723607
  -exchange      EXHF   =         0.00000000
  -V(xc)+E(xc)   XCENC  =       935.55267761
[...]
   0.901E+01 0.108E+02 0.442E+02   -.910E+01 -.113E+02 -.493E+02   0.765E-01 0.542E+00 0.506E+01   -.224E-06 0.260E-06 -.274E-05
   0.901E+01 0.108E+02 0.442E+02   -.910E+01 -.113E+02 -.493E+02   0.765E-01 0.542E+00 0.506E+01   -.224E-06 0.260E-06 -.274E-05
   0.171E+02 0.362E+02 0.232E+02   -.186E+02 -.408E+02 -.250E+02   0.142E+01 0.463E+01 0.177E+01   0.685E-06 -.626E-06 0.128E-07
   0.171E+02 0.362E+02 0.232E+02   -.186E+02 -.408E+02 -.250E+02   0.142E+01 0.463E+01 0.177E+01   0.685E-06 -.626E-06 0.128E-07
   0.171E+02 0.362E+02 0.232E+02   -.186E+02 -.408E+02 -.250E+02   0.142E+01 0.463E+01 0.177E+01   0.685E-06 -.626E-06 0.128E-07
   0.171E+02 0.362E+02 0.232E+02   -.186E+02 -.408E+02 -.250E+02   0.142E+01 0.463E+01 0.177E+01   0.685E-06 -.626E-06 0.128E-07
   0.171E+02 0.362E+02 0.232E+02   -.186E+02 -.408E+02 -.250E+02   0.142E+01 0.463E+01 0.177E+01   0.685E-06 -.626E-06 0.128E-07
   0.171E+02 0.362E+02 0.232E+02   -.186E+02 -.408E+02 -.250E+02   0.142E+01 0.463E+01 0.177E+01   0.685E-06 -.626E-06 0.128E-07
   0.171E+02 0.362E+02 0.232E+02   -.186E+02 -.408E+02 -.250E+02   0.142E+01 0.463E+01 0.177E+01   0.685E-06 -.626E-06 0.128E-07
   0.171E+02 0.362E+02 0.232E+02   -.186E+02 -.408E+02 -.250E+02   0.142E+01 0.463E+01 0.177E+01   0.685E-06 -.626E-06 0.128E-07
   -.374E+02 -.910E+01 -.258E+02   0.420E+02 0.937E+01 0.279E+02   -.464E+01 -.279E+00 -.213E+01   -.269E-06 -.777E-06 0.130E-05
   -.374E+02 -.910E+01 -.258E+02   0.420E+02 0.937E+01 0.279E+02   -.464E+01 -.279E+00 -.213E+01   -.269E-06 -.777E-06 0.130E-05
   -.374E+02 -.910E+01 -.258E+02   0.420E+02 0.937E+01 0.279E+02   -.464E+01 -.279E+00 -.213E+01   -.269E-06 -.777E-06 0.130E-05
   -.374E+02 -.910E+01 -.258E+02   0.420E+02 0.937E+01 0.279E+02   -.464E+01 -.279E+00 -.213E+01   -.269E-06 -.777E-06 0.130E-05
   -.374E+02 -.910E+01 -.258E+02   0.420E+02 0.937E+01 0.279E+02   -.464E+01 -.279E+00 -.213E+01   -.269E-06 -.777E-06 0.130E-05
   -.374E+02 -.910E+01 -.258E+02   0.420E+02 0.937E+01 0.279E+02   -.464E+01 -.279E+00 -.213E+01   -.269E-06 -.777E-06 0.130E-05
   -.374E+02 -.910E+01 -.258E+02   0.420E+02 0.937E+01 0.279E+02   -.464E+01 -.279E+00 -.213E+01   -.269E-06 -.777E-06 0.130E-05
   -.374E+02 -.910E+01 -.258E+02   0.420E+02 0.937E+01 0.279E+02   -.464E+01 -.279E+00 -.213E+01   -.269E-06 -.777E-06 0.130E-05
   -.901E+01 -.108E+02 -.442E+02   0.910E+01 0.113E+02 0.493E+02   -.765E-01 -.542E+00 -.506E+01   0.224E-06 -.260E-06 0.274E-05
   -.901E+01 -.108E+02 -.442E+02   0.910E+01 0.113E+02 0.493E+02   -.765E-01 -.542E+00 -.506E+01   0.224E-06 -.260E-06 0.274E-05
   -.901E+01 -.108E+02 -.442E+02   0.910E+01 0.113E+02 0.493E+02   -.765E-01 -.542E+00 -.506E+01   0.224E-06 -.260E-06 0.274E-05
   -.901E+01 -.108E+02 -.442E+02   0.910E+01 0.113E+02 0.493E+02   -.765E-01 -.542E+00 -.506E+01   0.224E-06 -.260E-06 0.274E-05
   -.901E+01 -.108E+02 -.442E+02   0.910E+01 0.113E+02 0.493E+02   -.765E-01 -.542E+00 -.506E+01   0.224E-06 -.260E-06 0.274E-05
   -.901E+01 -.108E+02 -.442E+02   0.910E+01 0.113E+02 0.493E+02   -.765E-01 -.542E+00 -.506E+01   0.224E-06 -.260E-06 0.274E-05
   -.901E+01 -.108E+02 -.442E+02   0.910E+01 0.113E+02 0.493E+02   -.765E-01 -.542E+00 -.506E+01   0.224E-06 -.260E-06 0.274E-05
   -.901E+01 -.108E+02 -.442E+02   0.910E+01 0.113E+02 0.493E+02   -.765E-01 -.542E+00 -.506E+01   0.224E-06 -.260E-06 0.274E-05
   -.171E+02 -.362E+02 -.232E+02   0.186E+02 0.408E+02 0.250E+02   -.142E+01 -.463E+01 -.177E+01   -.685E-06 0.626E-06 -.128E-07
   -.171E+02 -.362E+02 -.232E+02   0.186E+02 0.408E+02 0.250E+02   -.142E+01 -.463E+01 -.177E+01   -.685E-06 0.626E-06 -.128E-07
   -.171E+02 -.362E+02 -.232E+02   0.186E+02 0.408E+02 0.250E+02   -.142E+01 -.463E+01 -.177E+01   -.685E-06 0.626E-06 -.128E-07
   -.171E+02 -.362E+02 -.232E+02   0.186E+02 0.408E+02 0.250E+02   -.142E+01 -.463E+01 -.177E+01   -.685E-06 0.626E-06 -.128E-07
   -.171E+02 -.362E+02 -.232E+02   0.186E+02 0.408E+02 0.250E+02   -.142E+01 -.463E+01 -.177E+01   -.685E-06 0.626E-06 -.128E-07
   -.171E+02 -.362E+02 -.232E+02   0.186E+02 0.408E+02 0.250E+02   -.142E+01 -.463E+01 -.177E+01   -.685E-06 0.626E-06 -.128E-07
   -.171E+02 -.362E+02 -.232E+02   0.186E+02 0.408E+02 0.250E+02   -.142E+01 -.463E+01 -.177E+01   -.685E-06 0.626E-06 -.128E-07
   -.171E+02 -.362E+02 -.232E+02   0.186E+02 0.408E+02 0.250E+02   -.142E+01 -.463E+01 -.177E+01   -.685E-06 0.626E-06 -.128E-07
   0.156E+02 0.137E+02 0.229E+02   -.160E+02 -.140E+02 -.235E+02   0.382E+00 0.353E+00 0.585E+00   0.542E-06 -.977E-06 -.241E-05
   0.156E+02 0.137E+02 0.229E+02   -.160E+02 -.140E+02 -.235E+02   0.382E+00 0.353E+00 0.585E+00   0.542E-06 -.977E-06 -.241E-05
   0.156E+02 0.137E+02 0.229E+02   -.160E+02 -.140E+02 -.235E+02   0.382E+00 0.353E+00 0.585E+00   0.542E-06 -.977E-06 -.241E-05
   0.156E+02 0.137E+02 0.229E+02   -.160E+02 -.140E+02 -.235E+02   0.382E+00 0.353E+00 0.585E+00   0.542E-06 -.977E-06 -.241E-05
   0.156E+02 0.137E+02 0.229E+02   -.160E+02 -.140E+02 -.235E+02   0.382E+00 0.353E+00 0.585E+00   0.542E-06 -.977E-06 -.241E-05
   0.156E+02 0.137E+02 0.229E+02   -.160E+02 -.140E+02 -.235E+02   0.382E+00 0.353E+00 0.585E+00   0.542E-06 -.977E-06 -.241E-05
   0.156E+02 0.137E+02 0.229E+02   -.160E+02 -.140E+02 -.235E+02   0.382E+00 0.353E+00 0.585E+00   0.542E-06 -.977E-06 -.241E-05
   0.156E+02 0.137E+02 0.229E+02   -.160E+02 -.140E+02 -.235E+02   0.382E+00 0.353E+00 0.585E+00   0.542E-06 -.977E-06 -.241E-05
   -.156E+02 -.137E+02 -.229E+02   0.160E+02 0.140E+02 0.235E+02   -.382E+00 -.353E+00 -.585E+00   -.542E-06 0.977E-06 0.241E-05
   -.156E+02 -.137E+02 -.229E+02   0.160E+02 0.140E+02 0.235E+02   -.382E+00 -.353E+00 -.585E+00   -.542E-06 0.977E-06 0.241E-05
   -.156E+02 -.137E+02 -.229E+02   0.160E+02 0.140E+02 0.235E+02   -.382E+00 -.353E+00 -.585E+00   -.542E-06 0.977E-06 0.241E-05
   -.156E+02 -.137E+02 -.229E+02   0.160E+02 0.140E+02 0.235E+02   -.382E+00 -.353E+00 -.585E+00   -.542E-06 0.977E-06 0.241E-05
   -.156E+02 -.137E+02 -.229E+02   0.160E+02 0.140E+02 0.235E+02   -.382E+00 -.353E+00 -.585E+00   -.542E-06 0.977E-06 0.241E-05
   -.156E+02 -.137E+02 -.229E+02   0.160E+02 0.140E+02 0.235E+02   -.382E+00 -.353E+00 -.585E+00   -.542E-06 0.977E-06 0.241E-05
   -.156E+02 -.137E+02 -.229E+02   0.160E+02 0.140E+02 0.235E+02   -.382E+00 -.353E+00 -.585E+00   -.542E-06 0.977E-06 0.241E-05
   -.156E+02 -.137E+02 -.229E+02   0.160E+02 0.140E+02 0.235E+02   -.382E+00 -.353E+00 -.585E+00   -.542E-06 0.977E-06 0.241E-05
 -----------------------------------------------------------------------------------------------
   0.113E-10 0.184E-10 0.745E-11   0.192E-12 -.178E-13 -.320E-12   -.431E-13 0.163E-13 0.214E-13   0.813E-13 0.140E-12 0.162E-12
 
 
 POSITION                                       TOTAL-FORCE (eV/Angst)
 -----------------------------------------------------------------------------------
      2.65826      4.21367      6.16910         0.018038      0.000645     -0.009299
      2.70909      4.72265     11.29412         0.018038      0.000645     -0.009299
      4.05140      8.87242      7.89736         0.018038      0.000645     -0.009299
      4.10223      9.38140     13.02239         0.018038      0.000645     -0.009299
      7.34498      4.45078      8.29587         0.018038      0.000645     -0.009299
      7.39581      4.95976     13.42089         0.018038      0.000645     -0.009299
      8.73812      9.10953     10.02413         0.018038      0.000645     -0.009299
      8.78895      9.61850     15.14916         0.018038      0.000645     -0.009299
      4.88442      4.08382      4.72965         0.015050      0.000235     -0.013052
      4.93525      4.59280      9.85467         0.015050      0.000235     -0.013052
      6.27756      8.74257      6.45791         0.015050      0.000235     -0.013052
      6.32839      9.25154     11.58294         0.015050      0.000235     -0.013052
      9.57114      4.32092      6.85642         0.015050      0.000235     -0.013052
      9.62197      4.82990     11.98144         0.015050      0.000235     -0.013052
     10.96428      8.97967      8.58468         0.015050      0.000235     -0.013052
     11.01511      9.48865     13.70971         0.015050      0.000235     -0.013052
      4.23745      2.08724      6.35792         0.020416      0.006263     -0.002759
      4.28828      2.59621     11.48294         0.020416      0.006263     -0.002759
      5.63059      6.74598      8.08618         0.020416      0.006263     -0.002759
      5.68142      7.25496     13.21121         0.020416      0.006263     -0.002759
      8.92417      2.32434      8.48469         0.020416      0.006263     -0.002759
      8.97500      2.83332     13.60971         0.020416      0.006263     -0.002759
     10.31731      6.98309     10.21295         0.020416      0.006263     -0.002759
     10.36814      7.49207     15.33798         0.020416      0.006263     -0.002759
      3.47243      1.19116      2.81096        -0.018038     -0.000645      0.009299
      3.52325      1.70014      7.93598        -0.018038     -0.000645      0.009299
      4.86556      5.84991      4.53922        -0.018038     -0.000645      0.009299
      4.91639      6.35889      9.66424        -0.018038     -0.000645      0.009299
      8.15914      1.42826      4.93773        -0.018038     -0.000645      0.009299
      8.20997      1.93724     10.06275        -0.018038     -0.000645      0.009299
      9.55228      6.08701      6.66599        -0.018038     -0.000645      0.009299
      9.60311      6.59599     11.79101        -0.018038     -0.000645      0.009299
      1.24626      1.32101      4.25041        -0.015050     -0.000235      0.013052
      1.29709      1.82999      9.37543        -0.015050     -0.000235      0.013052
      2.63940      5.97976      5.97867        -0.015050     -0.000235      0.013052
      2.69023      6.48874     11.10370        -0.015050     -0.000235      0.013052
      5.93298      1.55812      6.37718        -0.015050     -0.000235      0.013052
      5.98381      2.06710     11.50220        -0.015050     -0.000235      0.013052
      7.32612      6.21687      8.10544        -0.015050     -0.000235      0.013052
      7.37695      6.72585     13.23047        -0.015050     -0.000235      0.013052
      1.89323      3.31759      2.62214        -0.020416     -0.006263      0.002759
      1.94406      3.82657      7.74716        -0.020416     -0.006263      0.002759
      3.28637      7.97634      4.35040        -0.020416     -0.006263      0.002759
      3.33720      8.48532      9.47543        -0.020416     -0.006263      0.002759
      6.57995      3.55470      4.74891        -0.020416     -0.006263      0.002759
      6.63078      4.06368      9.87393        -0.020416     -0.006263      0.002759
      7.97309      8.21345      6.47717        -0.020416     -0.006263      0.002759
      8.02392      8.72243     11.60220        -0.020416     -0.006263      0.002759
      3.11400      0.15898      1.41615         0.013454      0.005297     -0.002073
      3.16483      0.66796      6.54117         0.013454      0.005297     -0.002073
      4.50714      4.81773      3.14441         0.013454      0.005297     -0.002073
      4.55797      5.32670      8.26944         0.013454      0.005297     -0.002073
      7.80072      0.39608      3.54292         0.013454      0.005297     -0.002073
      7.85155      0.90506      8.66794         0.013454      0.005297     -0.002073
      9.19386      5.05483      5.27118         0.013454      0.005297     -0.002073
      9.24469      5.56381     10.39621         0.013454      0.005297     -0.002073
      0.03721      0.33921      3.40701        -0.018401      0.004717     -0.002955
      0.08803      0.84819      8.53204        -0.018401      0.004717     -0.002955
      1.43034      4.99796      5.13528        -0.018401      0.004717     -0.002955
      1.48117      5.50694     10.26030        -0.018401      0.004717     -0.002955
      4.72392      0.57631      5.53378        -0.018401      0.004717     -0.002955
      4.77475      1.08529     10.65881        -0.018401      0.004717     -0.002955
      6.11706      5.23506      7.26205        -0.018401      0.004717     -0.002955
      6.16789      5.74404     12.38707        -0.018401      0.004717     -0.002955
      0.92861      3.09290      1.15211        -0.001709      0.019883      0.008558
      0.97944      3.60187      6.27713        -0.001709      0.019883      0.008558
      2.32175      7.75164      2.88037        -0.001709      0.019883      0.008558
      2.37258      8.26062      8.00540        -0.001709      0.019883      0.008558
      5.61533      3.33000      3.27888        -0.001709      0.019883      0.008558
      5.66616      3.83898      8.40390        -0.001709      0.019883      0.008558
      7.00847      7.98875      5.00714        -0.001709      0.019883      0.008558
      7.05930      8.49773     10.13217        -0.001709      0.019883      0.008558
      1.57272      0.07813      0.71062        -0.013454     -0.005297      0.002073
      1.62355      0.58711      5.83565        -0.013454     -0.005297      0.002073
      2.96586      4.73688      2.43888        -0.013454     -0.005297      0.002073
      3.01669      5.24585      7.56391        -0.013454     -0.005297      0.002073
      6.25944      0.31523      2.83739        -0.013454     -0.005297      0.002073
      6.31026      0.82421      7.96242        -0.013454     -0.005297      0.002073
      7.65258      4.97398      4.56565        -0.013454     -0.005297      0.002073
      7.70340      5.48296      9.69068        -0.013454     -0.005297      0.002073
      0.01362      0.16977      1.71801         0.018401     -0.004717      0.002955
      0.06445      0.67875      6.84303         0.018401     -0.004717      0.002955
      1.40676      4.82852      3.44627         0.018401     -0.004717      0.002955
      1.45759      5.33750      8.57130         0.018401     -0.004717      0.002955
      4.70034      0.40687      3.84478         0.018401     -0.004717      0.002955
      4.75117      0.91585      8.96980         0.018401     -0.004717      0.002955
      6.09348      5.06562      5.57304         0.018401     -0.004717      0.002955
      6.14431      5.57460     10.69807         0.018401     -0.004717      0.002955
      0.56618      2.58381     10.82620         0.001709     -0.019883     -0.008558
      0.51536      2.07483      5.70118         0.001709     -0.019883     -0.008558
      1.95932      7.24256     12.55447         0.001709     -0.019883     -0.008558
      1.90849      6.73358      7.42944         0.001709     -0.019883     -0.008558
      5.25290      2.82091     12.95297         0.001709     -0.019883     -0.008558
      5.20207      2.31194      7.82795         0.001709     -0.019883     -0.008558
      6.64604      7.47966     14.68124         0.001709     -0.019883     -0.008558
      6.59521      6.97068      9.55621         0.001709     -0.019883     -0.008558
      3.86374      3.40485      5.65863        -0.019994      0.010190      0.012695
      3.91457      3.91383     10.78366        -0.019994      0.010190      0.012695
      5.25688      8.06360      7.38690        -0.019994      0.010190      0.012695
      5.30771      8.57257     12.51192        -0.019994      0.010190      0.012695
      8.55046      3.64195      7.78540        -0.019994      0.010190      0.012695
      8.60129      4.15093     12.91043        -0.019994      0.010190      0.012695
      9.94360      8.30070      9.51367        -0.019994      0.010190      0.012695
      9.99442      8.80968     14.63869        -0.019994      0.010190      0.012695
      2.26695      1.99998      3.32142         0.019994     -0.010190     -0.012695
      2.31778      2.50896      8.44645         0.019994     -0.010190     -0.012695
      3.66009      6.65873      5.04969         0.019994     -0.010190     -0.012695
      3.71092      7.16771     10.17471         0.019994     -0.010190     -0.012695
      6.95367      2.23709      5.44819         0.019994     -0.010190     -0.012695
      7.00449      2.74607     10.57322         0.019994     -0.010190     -0.012695
      8.34681      6.89584      7.17646         0.019994     -0.010190     -0.012695
      8.39763      7.40481     12.30148         0.019994     -0.010190     -0.012695
 -----------------------------------------------------------------------------------
    total drift:                                0.000000      0.000000      0.000000


--------------------------------------------------------------------------------------------------------



  FREE ENERGIE OF THE ION-ELECTRON SYSTEM (eV)
  ---------------------------------------------------
  free  energy   TOTEN  =      -793.81333405 eV

  energy  without entropy=     -793.81333405  energy(sigma->0) =     -793.81333405
 
 d Force = 0.3724207E-03[ 0.201E-03, 0.544E-03]  d Energy = 0.6109083E-03-0.238E-03
 d Force =-0.6946566E-01[-0.696E-01,-0.693E-01]  d Ewald  =-0.3927926E-01-0.302E-01


--------------------------------------------------------------------------------------------------------


    POTLOK:  cpu time    0.2800: real time    0.2801


--------------------------------------------------------------------------------------------------------




--------------------------------------------------------------------------------------------------------


  
 reached required accuracy - stopping structural energy minimisation
     LOOP+:  cpu time   75.6335: real time   75.6351
 -----------------------------------------------------------------------------
|                                                                             |
|           W    W    AA    RRRRR   N    N  II  N    N   GGGG   !!!           |
|           W    W   A  A   R    R  NN   N  II  NN   N  G    G  !!!           |
|           W    W  A    A  R    R  N N  N  II  N N  N  G       !!!           |
|           W WW W  AAAAAA  RRRRR   N  N N  II  N  N N  G  GGG   !            |
|           WW  WW  A    A  R   R   N   NN  II  N   NN  G    G                |
|           W    W  A    A  R    R  N    N  II  N    N   GGGG   !!!           |
|                                                                             |
|     Tetrahedron method does not include variations of the Fermi             |
|     occupations, so forces and stress will be inaccurate. We suggest        |
|     using a different smearing scheme ISMEAR = 1 or 2 for metals in         |
|     relaxations.                                                            |
|                                                                             |
 -----------------------------------------------------------------------------

    4ORBIT:  cpu time    0.0000: real time    0.0000
 BZINTS: Fermi energy:    4.191654;  352.000000 electrons
         Band energy:-0.487254E+03;  BLOECHL correction:   -0.131348

 total amount of memory used by VASP MPI-rank0  1781673. kBytes
=======================================================================

   base      :      30000. kBytes
   nonlr-proj:      52854. kBytes
   fftplans  :     213988. kBytes
   grid      :     382371. kBytes
   one-center:        344. kBytes
   wavefun   :    1102116. kBytes
 
  
  
 General timing and accounting informations for this job:
 ========================================================
  
                  Total CPU time used (sec):     1992.250
                            User time (sec):     1616.541
                          System time (sec):      375.709
                         Elapsed time (sec):     1994.396
  
                   Maximum memory used (kb):     3808748.
                   Average memory used (kb):          N/A
  
                          Minor page faults:     26364905
                          Major page faults:            0
                 Voluntary context switches:       483014
