<?xml version="1.0" encoding="ISO-8859-1"?>
<modeling>
 <generator>
  <i name="program" type="string">vasp </i>
  <i name="version" type="string">6.2.0  </i>
  <i name="subversion" type="string">18Jan21 (build Feb 25 2021 07:51:20) complex                          parallel </i>
  <i name="platform" type="string">LinuxPGI </i>
  <i name="date" type="string">2022 05 18 </i>
  <i name="time" type="string">12:24:44 </i>
 </generator>
 <incar>
  <i type="string" name="PREC">Accurate</i>
  <i type="string" name="ALGO">Fast</i>
  <i type="int" name="IBRION">     2</i>
  <i name="EDIFF">      0.00000100</i>
  <i type="int" name="NSW">   300</i>
  <i type="int" name="ISIF">     4</i>
  <i name="ENCUT">    700.00000000</i>
  <i type="string" name="LREAL">Auto</i>
  <i type="int" name="ISMEAR">    -5</i>
  <i name="SIGMA">      0.05000000</i>
  <i type="logical" name="LWAVE"> F  </i>
 </incar>
 <primitive_cell>
  <structure name="primitive_cell" >
   <crystal>
    <varray name="basis" >
     <v>      -1.39798950      -4.88812050      -2.11831450 </v>
     <v>      -6.06160000      -4.34317100       0.85973350 </v>
     <v>      -0.04887150      -0.96886250      -5.09636250 </v>
    </varray>
    <i name="volume">    107.11071548 </i>
    <varray name="rec_basis" >
     <v>       0.21442614      -0.28880516       0.05284812 </v>
     <v>      -0.21341729       0.06555027      -0.01041511 </v>
     <v>      -0.12512925       0.13110055      -0.21994180 </v>
    </varray>
   </crystal>
   <varray name="positions" >
    <v>       0.51976000       0.67921000       0.87818000 </v>
    <v>       1.00000000       0.19897000       0.87818000 </v>
    <v>       0.48024000       0.19897000       0.39794000 </v>
    <v>       0.48024000       0.32079000       0.12182000 </v>
    <v>      -0.00000000       0.80103000       0.12182000 </v>
    <v>       0.51976000       0.80103000       0.60206000 </v>
    <v>       0.66435600       0.33541400       0.33518400 </v>
    <v>      -0.00000000       0.99977000       0.33518400 </v>
    <v>       0.33564400       0.99977000       0.99954000 </v>
    <v>       0.33564400       0.66458600       0.66481600 </v>
    <v>       1.00000000       0.00023000       0.66481600 </v>
    <v>       0.66435600       0.00023000       0.00046000 </v>
    <v>       1.00000000       0.36920600       0.73841200 </v>
    <v>       1.00000000       0.63079400       0.26158800 </v>
   </varray>
  </structure>
  <varray name="primitive_index" >
   <v type="int" >        1 </v>
   <v type="int" >        9 </v>
   <v type="int" >       17 </v>
   <v type="int" >       28 </v>
   <v type="int" >       35 </v>
   <v type="int" >       42 </v>
   <v type="int" >       52 </v>
   <v type="int" >       59 </v>
   <v type="int" >       66 </v>
   <v type="int" >       76 </v>
   <v type="int" >       83 </v>
   <v type="int" >       90 </v>
   <v type="int" >       97 </v>
   <v type="int" >      105 </v>
  </varray>
 </primitive_cell>
 <kpoints>
  <generation param="Gamma">
   <v type="int" name="divisions">       2        2        2 </v>
   <v name="usershift">      0.00000000       0.00000000       0.00000000 </v>
   <v name="genvec1">      0.50000000       0.00000000       0.00000000 </v>
   <v name="genvec2">      0.00000000       0.50000000       0.00000000 </v>
   <v name="genvec3">      0.00000000       0.00000000       0.50000000 </v>
   <v name="shift">      0.00000000       0.00000000       0.00000000 </v>
  </generation>
  <varray name="kpointlist" >
   <v>       0.00000000       0.00000000       0.00000000 </v>
   <v>       0.50000000       0.00000000       0.00000000 </v>
   <v>       0.00000000       0.50000000       0.00000000 </v>
   <v>       0.50000000       0.50000000       0.00000000 </v>
   <v>       0.00000000       0.00000000       0.50000000 </v>
   <v>       0.50000000       0.00000000       0.50000000 </v>
   <v>       0.00000000       0.50000000       0.50000000 </v>
   <v>       0.50000000       0.50000000       0.50000000 </v>
  </varray>
  <varray name="weights" >
   <v>       0.12500000 </v>
   <v>       0.12500000 </v>
   <v>       0.12500000 </v>
   <v>       0.12500000 </v>
   <v>       0.12500000 </v>
   <v>       0.12500000 </v>
   <v>       0.12500000 </v>
   <v>       0.12500000 </v>
  </varray>
  <varray name="tetrahedronlist"  type="int" >
   <v type="int" >        2        1        3        4        8 </v>
   <v type="int" >        2        1        2        4        8 </v>
   <v type="int" >        2        1        2        6        8 </v>
   <v type="int" >        2        1        3        7        8 </v>
   <v type="int" >        2        1        5        7        8 </v>
   <v type="int" >        2        1        5        6        8 </v>
   <v type="int" >        2        2        3        4        7 </v>
   <v type="int" >        2        1        2        3        7 </v>
   <v type="int" >        2        1        2        5        7 </v>
   <v type="int" >        2        2        4        7        8 </v>
   <v type="int" >        2        2        6        7        8 </v>
   <v type="int" >        2        2        5        6        7 </v>
   <v type="int" >        2        1        2        3        6 </v>
   <v type="int" >        2        2        3        4        6 </v>
   <v type="int" >        2        3        4        6        8 </v>
   <v type="int" >        2        1        3        5        6 </v>
   <v type="int" >        2        3        5        6        7 </v>
   <v type="int" >        2        3        6        7        8 </v>
   <v type="int" >        2        1        2        4        5 </v>
   <v type="int" >        2        1        3        4        5 </v>
   <v type="int" >        2        3        4        5        7 </v>
   <v type="int" >        2        2        4        5        6 </v>
   <v type="int" >        2        4        5        6        8 </v>
   <v type="int" >        2        4        5        7        8 </v>
  </varray>
  <i name="volumeweight">      0.02083333 </i>
 </kpoints>
 <parameters>
  <separator name="general" >
   <i type="string" name="SYSTEM">unknown system</i>
   <i type="logical" name="LCOMPAT"> F  </i>
  </separator>
  <separator name="electronic" >
   <i type="string" name="PREC">accura</i>
   <i name="ENMAX">    700.00000000</i>
   <i name="ENAUG">    644.87300000</i>
   <i name="EDIFF">      0.00000100</i>
   <i type="int" name="IALGO">    68</i>
   <i type="int" name="IWAVPR">    11</i>
   <i type="int" name="NBANDS">   233</i>
   <i type="int" name="NBANDSLOW">    -1</i>
   <i type="int" name="NBANDSHIGH">    -1</i>
   <i name="NELECT">    352.00000000</i>
   <i type="int" name="TURBO">     0</i>
   <i type="int" name="IRESTART">     0</i>
   <i type="int" name="NREBOOT">     0</i>
   <i type="int" name="NMIN">     0</i>
   <i name="EREF">      0.00000000</i>
   <separator name="electronic smearing" >
    <i type="int" name="ISMEAR">    -5</i>
    <i name="SIGMA">      0.05000000</i>
    <i name="KSPACING">      0.50000000</i>
    <i type="logical" name="KGAMMA"> T  </i>
    <i type="logical" name="KBLOWUP"> T  </i>
   </separator>
   <separator name="electronic projectors" >
    <i type="logical" name="LREAL"> T  </i>
    <v name="ROPT">     -0.00025000     -0.00025000</v>
    <i type="int" name="LMAXPAW">  -100</i>
    <i type="int" name="LMAXMIX">     2</i>
    <i type="logical" name="NLSPLINE"> F  </i>
   </separator>
   <separator name="electronic startup" >
    <i type="int" name="ISTART">     0</i>
    <i type="int" name="ICHARG">     2</i>
    <i type="int" name="INIWAV">     1</i>
   </separator>
   <separator name="electronic spin" >
    <i type="int" name="ISPIN">     1</i>
    <i type="logical" name="LNONCOLLINEAR"> F  </i>
    <v name="MAGMOM">      1.00000000      1.00000000      1.00000000      1.00000000      1.00000000      1.00000000      1.00000000      1.00000000      1.00000000      1.00000000      1.00000000      1.00000000      1.00000000      1.00000000      1.00000000      1.00000000      1.00000000      1.00000000      1.00000000      1.00000000
      1.00000000      1.00000000      1.00000000      1.00000000      1.00000000      1.00000000      1.00000000      1.00000000      1.00000000      1.00000000      1.00000000      1.00000000      1.00000000      1.00000000      1.00000000      1.00000000      1.00000000      1.00000000      1.00000000      1.00000000
      1.00000000      1.00000000      1.00000000      1.00000000      1.00000000      1.00000000      1.00000000      1.00000000      1.00000000      1.00000000      1.00000000      1.00000000      1.00000000      1.00000000      1.00000000      1.00000000      1.00000000      1.00000000      1.00000000      1.00000000
      1.00000000      1.00000000      1.00000000      1.00000000      1.00000000      1.00000000      1.00000000      1.00000000      1.00000000      1.00000000      1.00000000      1.00000000      1.00000000      1.00000000      1.00000000      1.00000000      1.00000000      1.00000000      1.00000000      1.00000000
      1.00000000      1.00000000      1.00000000      1.00000000      1.00000000      1.00000000      1.00000000      1.00000000      1.00000000      1.00000000      1.00000000      1.00000000      1.00000000      1.00000000      1.00000000      1.00000000      1.00000000      1.00000000      1.00000000      1.00000000
      1.00000000      1.00000000      1.00000000      1.00000000      1.00000000      1.00000000      1.00000000      1.00000000      1.00000000      1.00000000      1.00000000      1.00000000</v>
    <i name="NUPDOWN">     -1.00000000</i>
    <i type="logical" name="LSORBIT"> F  </i>
    <v name="SAXIS">      0.00000000      0.00000000      1.00000000</v>
    <i type="logical" name="LSPIRAL"> F  </i>
    <v name="QSPIRAL">      0.00000000      0.00000000      0.00000000</v>
    <i type="logical" name="LZEROZ"> F  </i>
   </separator>
   <separator name="electronic exchange-correlation" >
    <i type="logical" name="LASPH"> F  </i>
    <i type="logical" name="LMETAGGA"> F  </i>
   </separator>
   <separator name="electronic convergence" >
    <i type="int" name="NELM">    60</i>
    <i type="int" name="NELMDL">    -5</i>
    <i type="int" name="NELMIN">     2</i>
    <i name="ENINI">    700.00000000</i>
    <separator name="electronic convergence detail" >
     <i type="logical" name="LDIAG"> T  </i>
     <i type="logical" name="LSUBROT"> F  </i>
     <i name="WEIMIN">      0.00100000</i>
     <i name="EBREAK">      0.00000000</i>
     <i name="DEPER">      0.30000000</i>
     <i type="int" name="NRMM">     4</i>
     <i name="TIME">      0.40000000</i>
    </separator>
   </separator>
   <separator name="electronic mixer" >
    <i name="AMIX">      0.40000000</i>
    <i name="BMIX">      1.00000000</i>
    <i name="AMIN">      0.10000000</i>
    <i name="AMIX_MAG">      1.60000000</i>
    <i name="BMIX_MAG">      1.00000000</i>
    <separator name="electronic mixer details" >
     <i type="int" name="IMIX">     4</i>
     <i type="logical" name="MIXFIRST"> F  </i>
     <i type="int" name="MAXMIX">   -45</i>
     <i name="WC">    100.00000000</i>
     <i type="int" name="INIMIX">     1</i>
     <i type="int" name="MIXPRE">     1</i>
     <i type="int" name="MREMOVE">     5</i>
    </separator>
   </separator>
   <separator name="electronic dipolcorrection" >
    <i type="logical" name="LDIPOL"> F  </i>
    <i type="logical" name="LMONO"> F  </i>
    <i type="int" name="IDIPOL">     0</i>
    <i name="EPSILON">      1.00000000</i>
    <v name="DIPOL">   -100.00000000   -100.00000000   -100.00000000</v>
    <i name="EFIELD">      0.00000000</i>
   </separator>
  </separator>
  <separator name="grids" >
   <i type="int" name="NGX">    90</i>
   <i type="int" name="NGY">    96</i>
   <i type="int" name="NGZ">    90</i>
   <i type="int" name="NGXF">   180</i>
   <i type="int" name="NGYF">   192</i>
   <i type="int" name="NGZF">   180</i>
   <i type="logical" name="ADDGRID"> F  </i>
  </separator>
  <separator name="ionic" >
   <i type="int" name="NSW">   300</i>
   <i type="int" name="IBRION">     2</i>
   <i type="int" name="MDALGO">     0</i>
   <i type="int" name="ISIF">     4</i>
   <i name="PSTRESS">      0.00000000</i>
   <i name="EDIFFG">      0.00001000</i>
   <i type="int" name="NFREE">     1</i>
   <i name="POTIM">      0.50000000</i>
   <i name="SMASS">     -3.00000000</i>
   <i name="SCALEE">      1.00000000</i>
  </separator>
  <separator name="ionic md" >
   <i name="TEBEG">      0.00010000</i>
   <i name="TEEND">      0.00010000</i>
   <i type="int" name="NBLOCK">     1</i>
   <i type="int" name="KBLOCK">   300</i>
   <i type="int" name="NPACO">   256</i>
   <i name="APACO">     16.00000000</i>
  </separator>
  <separator name="symmetry" >
   <i type="int" name="ISYM">     2</i>
   <i name="SYMPREC">      0.00001000</i>
  </separator>
  <separator name="dos" >
   <i type="int" name="LORBIT">     0</i>
   <v name="RWIGS">     -1.00000000     -1.00000000</v>
   <i type="int" name="NEDOS">   301</i>
   <i name="EMIN">     10.00000000</i>
   <i name="EMAX">    -10.00000000</i>
   <i name="EFERMI">      0.00000000</i>
  </separator>
  <separator name="writing" >
   <i type="int" name="NWRITE">     2</i>
   <i type="logical" name="LWAVE"> F  </i>
   <i type="logical" name="LDOWNSAMPLE"> F  </i>
   <i type="logical" name="LCHARG"> T  </i>
   <i type="logical" name="LPARD"> F  </i>
   <i type="logical" name="LVTOT"> F  </i>
   <i type="logical" name="LVHAR"> F  </i>
   <i type="logical" name="LELF"> F  </i>
   <i type="logical" name="LOPTICS"> F  </i>
   <v name="STM">      0.00000000      0.00000000      0.00000000      0.00000000      0.00000000      0.00000000      0.00000000</v>
  </separator>
  <separator name="performance" >
   <i type="int" name="NPAR">     1</i>
   <i type="int" name="NSIM">     4</i>
   <i type="int" name="NBLK">    -1</i>
   <i type="logical" name="LPLANE"> T  </i>
   <i type="logical" name="LSCALAPACK"> T  </i>
   <i type="logical" name="LSCAAWARE"> F  </i>
   <i type="logical" name="LSCALU"> F  </i>
   <i type="logical" name="LASYNC"> F  </i>
   <i type="logical" name="LORBITALREAL"> F  </i>
  </separator>
  <separator name="miscellaneous" >
   <i type="int" name="IDIOT">     3</i>
   <i type="int" name="PHON_NSTRUCT">    -1</i>
   <i type="logical" name="LMUSIC"> F  </i>
   <v name="POMASS">     10.81100000     12.01100000</v>
   <v name="DARWINR">      0.00000000      0.00000000</v>
   <v name="DARWINV">      1.00000000      1.00000000</v>
   <i type="logical" name="LCORR"> T  </i>
  </separator>
  <i type="logical" name="GGA_COMPAT"> T  </i>
  <i type="logical" name="LBERRY"> F  </i>
  <i type="int" name="ICORELEVEL">     0</i>
  <i type="logical" name="LDAU"> F  </i>
  <i type="int" name="I_CONSTRAINED_M">     0</i>
  <separator name="electronic exchange-correlation" >
   <i type="string" name="GGA">--</i>
   <i type="int" name="VOSKOWN">     0</i>
   <i type="logical" name="LHFCALC"> F  </i>
   <i type="string" name="PRECFOCK"></i>
   <i type="logical" name="LSYMGRAD"> F  </i>
   <i type="logical" name="LHFONE"> F  </i>
   <i type="logical" name="LRHFCALC"> F  </i>
   <i type="logical" name="LTHOMAS"> F  </i>
   <i type="logical" name="LMODELHF"> F  </i>
   <i type="logical" name="LFOCKACE"> F  </i>
   <i name="ENCUT4O">     -1.00000000</i>
   <i type="int" name="EXXOEP">     0</i>
   <i type="int" name="FOURORBIT">     0</i>
   <i name="AEXX">      0.00000000</i>
   <i name="HFALPHA">      0.00000000</i>
   <i name="MCALPHA">      0.00000000</i>
   <i name="ALDAX">      1.00000000</i>
   <i name="AGGAX">      1.00000000</i>
   <i name="ALDAC">      1.00000000</i>
   <i name="AGGAC">      1.00000000</i>
   <i type="int" name="NKREDX">     1</i>
   <i type="int" name="NKREDY">     1</i>
   <i type="int" name="NKREDZ">     1</i>
   <i type="logical" name="SHIFTRED"> F  </i>
   <i type="logical" name="ODDONLY"> F  </i>
   <i type="logical" name="EVENONLY"> F  </i>
   <i type="int" name="LMAXFOCK">     0</i>
   <i type="int" name="NMAXFOCKAE">     0</i>
   <i type="logical" name="LFOCKAEDFT"> F  </i>
   <i name="HFSCREEN">      0.00000000</i>
   <i name="HFSCREENC">      0.00000000</i>
   <i type="int" name="NBANDSGWLOW">     0</i>
  </separator>
  <separator name="vdW DFT" >
   <i type="logical" name="LUSE_VDW"> F  </i>
   <i name="Zab_VDW">     -0.84910000</i>
   <i name="PARAM1">      0.12340000</i>
   <i name="PARAM2">      1.00000000</i>
   <i name="PARAM3">      0.00000000</i>
  </separator>
  <separator name="model GW" >
   <i type="int" name="MODEL_GW">     0</i>
   <i name="MODEL_EPS0">      4.59045923</i>
   <i name="MODEL_ALPHA">      1.00000000</i>
  </separator>
  <separator name="linear response parameters" >
   <i type="logical" name="LEPSILON"> F  </i>
   <i type="logical" name="LRPA"> F  </i>
   <i type="logical" name="LNABLA"> F  </i>
   <i type="logical" name="LVEL"> F  </i>
   <i type="int" name="KINTER">     0</i>
   <i name="CSHIFT">      0.10000000</i>
   <i name="OMEGAMAX">     -1.00000000</i>
   <i name="DEG_THRESHOLD">      0.00200000</i>
   <i name="RTIME">     -0.10000000</i>
   <i name="WPLASMAI">      0.00000000</i>
   <v name="DFIELD">      0.00000000      0.00000000      0.00000000</v>
   <v name="WPLASMA">      0.00000000      0.00000000      0.00000000      0.00000000      0.00000000      0.00000000      0.00000000      0.00000000      0.00000000</v>
  </separator>
  <separator name="orbital magnetization" >
   <i type="logical" name="NUCIND"> F  </i>
   <v name="MAGPOS">      0.00000000      0.00000000      0.00000000</v>
   <i type="logical" name="LNICSALL"> T  </i>
   <i type="logical" name="ORBITALMAG"> F  </i>
   <i type="logical" name="LMAGBLOCH"> F  </i>
   <i type="logical" name="LCHIMAG"> F  </i>
   <i type="logical" name="LGAUGE"> T  </i>
   <i type="int" name="MAGATOM">     0</i>
   <v name="MAGDIPOL">      0.00000000      0.00000000      0.00000000</v>
   <v name="AVECCONST">      0.00000000      0.00000000      0.00000000</v>
  </separator>
  <separator name="response functions" >
   <i type="logical" name="LFINITE_TEMPERATURE"> F  </i>
   <i type="logical" name="LADDER"> F  </i>
   <i type="logical" name="LRPAFORCE"> F  </i>
   <i type="logical" name="LFXC"> F  </i>
   <i type="logical" name="LHARTREE"> T  </i>
   <i type="int" name="IBSE">     0</i>
   <v type="int" name="KPOINT">    -1     0     0     0</v>
   <i type="logical" name="LTCTC"> F  </i>
   <i type="logical" name="LTCTE"> F  </i>
   <i type="logical" name="LTETE"> F  </i>
   <i type="logical" name="LTRIPLET"> F  </i>
   <i type="logical" name="LFXCEPS"> F  </i>
   <i type="logical" name="LFXHEG"> F  </i>
   <i type="int" name="NATURALO">     2</i>
   <i type="logical" name="LHOLEGF"> F  </i>
   <i type="logical" name="L2ORDER"> F  </i>
   <i type="logical" name="LDMP1"> F  </i>
   <i type="logical" name="LMP2LT"> F  </i>
   <i type="logical" name="LSMP2LT"> F  </i>
   <i type="logical" name="LGWLF"> F  </i>
   <i name="ENCUTGW">     -2.00000000</i>
   <i name="ENCUTGWSOFT">     -2.00000000</i>
   <i name="ENCUTLF">     -1.00000000</i>
   <i type="logical" name="LESF_SPLINES"> F  </i>
   <i type="int" name="LMAXMP2">    -1</i>
   <i name="SCISSOR">      0.00000000</i>
   <i type="int" name="NOMEGA">     0</i>
   <i type="int" name="NOMEGAR">     0</i>
   <i type="int" name="NBANDSGW">    -1</i>
   <i type="int" name="NBANDSO">    -1</i>
   <i type="int" name="NBANDSV">    -1</i>
   <i type="int" name="NELM">     1</i>
   <i type="int" name="NELMHF">     1</i>
   <i type="int" name="DIM">     3</i>
   <i type="int" name="IESPILON">     4</i>
   <i type="int" name="ANTIRES">     0</i>
   <i name="OMEGAMAX">    -30.00000000</i>
   <i name="OMEGAMIN">    -30.00000000</i>
   <i name="OMEGATL">   -200.00000000</i>
   <i type="int" name="OMEGAGRID">     0</i>
   <i name="CSHIFT">     -0.10000000</i>
   <i type="logical" name="LSELFENERGY"> F  </i>
   <i type="logical" name="LSPECTRAL"> F  </i>
   <i type="logical" name="LSPECTRALGW"> F  </i>
   <i type="logical" name="LSINGLES"> F  </i>
   <i type="logical" name="LFERMIGW"> F  </i>
   <i type="logical" name="ODDONLYGW"> F  </i>
   <i type="logical" name="EVENONLYGW"> F  </i>
   <i type="int" name="NKREDLFX">     1</i>
   <i type="int" name="NKREDLFY">     1</i>
   <i type="int" name="NKREDLFZ">     1</i>
   <i type="int" name="MAXMEM">  2800</i>
   <i type="int" name="TELESCOPE">     0</i>
   <i type="int" name="NTAUPAR">    -1</i>
   <i type="int" name="NOMEGAPAR">    -1</i>
   <i name="DAMP_NEWTON">      0.80000001</i>
   <i name="LAMBDA">      1.00000000</i>
  </separator>
  <separator name="External order field" >
   <i name="OFIELD_KAPPA">      0.00000000</i>
   <v name="OFIELD_K">      0.00000000      0.00000000      0.00000000</v>
   <i name="OFIELD_Q6_NEAR">      0.00000000</i>
   <i name="OFIELD_Q6_FAR">      0.00000000</i>
   <i name="OFIELD_A">      0.00000000</i>
  </separator>
 </parameters>
 <atominfo>
  <atoms>     112 </atoms>
  <types>       2 </types>
  <array name="atoms" >
   <dimension dim="1">ion</dimension>
   <field type="string">element</field>
   <field type="int">atomtype</field>
   <set>
    <rc><c>B </c><c>   1</c></rc>
    <rc><c>B </c><c>   1</c></rc>
    <rc><c>B </c><c>   1</c></rc>
    <rc><c>B </c><c>   1</c></rc>
    <rc><c>B </c><c>   1</c></rc>
    <rc><c>B </c><c>   1</c></rc>
    <rc><c>B </c><c>   1</c></rc>
    <rc><c>B </c><c>   1</c></rc>
    <rc><c>B </c><c>   1</c></rc>
    <rc><c>B </c><c>   1</c></rc>
    <rc><c>B </c><c>   1</c></rc>
    <rc><c>B </c><c>   1</c></rc>
    <rc><c>B </c><c>   1</c></rc>
    <rc><c>B </c><c>   1</c></rc>
    <rc><c>B </c><c>   1</c></rc>
    <rc><c>B </c><c>   1</c></rc>
    <rc><c>B </c><c>   1</c></rc>
    <rc><c>B </c><c>   1</c></rc>
    <rc><c>B </c><c>   1</c></rc>
    <rc><c>B </c><c>   1</c></rc>
    <rc><c>B </c><c>   1</c></rc>
    <rc><c>B </c><c>   1</c></rc>
    <rc><c>B </c><c>   1</c></rc>
    <rc><c>B </c><c>   1</c></rc>
    <rc><c>B </c><c>   1</c></rc>
    <rc><c>B </c><c>   1</c></rc>
    <rc><c>B </c><c>   1</c></rc>
    <rc><c>B </c><c>   1</c></rc>
    <rc><c>B </c><c>   1</c></rc>
    <rc><c>B </c><c>   1</c></rc>
    <rc><c>B </c><c>   1</c></rc>
    <rc><c>B </c><c>   1</c></rc>
    <rc><c>B </c><c>   1</c></rc>
    <rc><c>B </c><c>   1</c></rc>
    <rc><c>B </c><c>   1</c></rc>
    <rc><c>B </c><c>   1</c></rc>
    <rc><c>B </c><c>   1</c></rc>
    <rc><c>B </c><c>   1</c></rc>
    <rc><c>B </c><c>   1</c></rc>
    <rc><c>B </c><c>   1</c></rc>
    <rc><c>B </c><c>   1</c></rc>
    <rc><c>B </c><c>   1</c></rc>
    <rc><c>B </c><c>   1</c></rc>
    <rc><c>B </c><c>   1</c></rc>
    <rc><c>B </c><c>   1</c></rc>
    <rc><c>B </c><c>   1</c></rc>
    <rc><c>B </c><c>   1</c></rc>
    <rc><c>B </c><c>   1</c></rc>
    <rc><c>B </c><c>   1</c></rc>
    <rc><c>B </c><c>   1</c></rc>
    <rc><c>B </c><c>   1</c></rc>
    <rc><c>B </c><c>   1</c></rc>
    <rc><c>B </c><c>   1</c></rc>
    <rc><c>B </c><c>   1</c></rc>
    <rc><c>B </c><c>   1</c></rc>
    <rc><c>B </c><c>   1</c></rc>
    <rc><c>B </c><c>   1</c></rc>
    <rc><c>B </c><c>   1</c></rc>
    <rc><c>B </c><c>   1</c></rc>
    <rc><c>B </c><c>   1</c></rc>
    <rc><c>B </c><c>   1</c></rc>
    <rc><c>B </c><c>   1</c></rc>
    <rc><c>B </c><c>   1</c></rc>
    <rc><c>B </c><c>   1</c></rc>
    <rc><c>B </c><c>   1</c></rc>
    <rc><c>B </c><c>   1</c></rc>
    <rc><c>B </c><c>   1</c></rc>
    <rc><c>B </c><c>   1</c></rc>
    <rc><c>B </c><c>   1</c></rc>
    <rc><c>B </c><c>   1</c></rc>
    <rc><c>B </c><c>   1</c></rc>
    <rc><c>B </c><c>   1</c></rc>
    <rc><c>B </c><c>   1</c></rc>
    <rc><c>B </c><c>   1</c></rc>
    <rc><c>B </c><c>   1</c></rc>
    <rc><c>B </c><c>   1</c></rc>
    <rc><c>B </c><c>   1</c></rc>
    <rc><c>B </c><c>   1</c></rc>
    <rc><c>B </c><c>   1</c></rc>
    <rc><c>B </c><c>   1</c></rc>
    <rc><c>B </c><c>   1</c></rc>
    <rc><c>B </c><c>   1</c></rc>
    <rc><c>B </c><c>   1</c></rc>
    <rc><c>B </c><c>   1</c></rc>
    <rc><c>B </c><c>   1</c></rc>
    <rc><c>B </c><c>   1</c></rc>
    <rc><c>B </c><c>   1</c></rc>
    <rc><c>B </c><c>   1</c></rc>
    <rc><c>B </c><c>   1</c></rc>
    <rc><c>B </c><c>   1</c></rc>
    <rc><c>B </c><c>   1</c></rc>
    <rc><c>B </c><c>   1</c></rc>
    <rc><c>B </c><c>   1</c></rc>
    <rc><c>B </c><c>   1</c></rc>
    <rc><c>B </c><c>   1</c></rc>
    <rc><c>B </c><c>   1</c></rc>
    <rc><c>C </c><c>   2</c></rc>
    <rc><c>C </c><c>   2</c></rc>
    <rc><c>C </c><c>   2</c></rc>
    <rc><c>C </c><c>   2</c></rc>
    <rc><c>C </c><c>   2</c></rc>
    <rc><c>C </c><c>   2</c></rc>
    <rc><c>C </c><c>   2</c></rc>
    <rc><c>C </c><c>   2</c></rc>
    <rc><c>C </c><c>   2</c></rc>
    <rc><c>C </c><c>   2</c></rc>
    <rc><c>C </c><c>   2</c></rc>
    <rc><c>C </c><c>   2</c></rc>
    <rc><c>C </c><c>   2</c></rc>
    <rc><c>C </c><c>   2</c></rc>
    <rc><c>C </c><c>   2</c></rc>
    <rc><c>C </c><c>   2</c></rc>
   </set>
  </array>
  <array name="atomtypes" >
   <dimension dim="1">type</dimension>
   <field type="int">atomspertype</field>
   <field type="string">element</field>
   <field>mass</field>
   <field>valence</field>
   <field type="string">pseudopotential</field>
   <set>
    <rc><c>  96</c><c>B </c><c>     10.81100000</c><c>      3.00000000</c><c>  PAW_PBE B 06Sep2000                   </c></rc>
    <rc><c>  16</c><c>C </c><c>     12.01100000</c><c>      4.00000000</c><c>  PAW_PBE C 08Apr2002                   </c></rc>
   </set>
  </array>
 </atominfo>
 <structure name="initialpos" >
  <crystal>
   <varray name="basis" >
    <v>       9.42496400       0.84782600       4.23662900 </v>
    <v>       2.79597900       9.77624100       4.23662900 </v>
    <v>       0.09774300       1.93772500      10.19272500 </v>
   </varray>
   <i name="volume">    856.88572385 </i>
   <varray name="rec_basis" >
    <v>       0.10670864      -0.03277513       0.00520755 </v>
    <v>      -0.00050443       0.11162745      -0.02121650 </v>
    <v>      -0.04414402      -0.03277514       0.10476335 </v>
   </varray>
  </crystal>
  <varray name="positions" >
   <v>       0.16039500       0.40051500       0.40051500 </v>
   <v>       0.16039500       0.40051500       0.90051500 </v>
   <v>       0.16039500       0.90051500       0.40051500 </v>
   <v>       0.16039500       0.90051500       0.90051500 </v>
   <v>       0.66039500       0.40051500       0.40051500 </v>
   <v>       0.66039500       0.40051500       0.90051500 </v>
   <v>       0.66039500       0.90051500       0.40051500 </v>
   <v>       0.66039500       0.90051500       0.90051500 </v>
   <v>       0.40051500       0.40051500       0.16039500 </v>
   <v>       0.40051500       0.40051500       0.66039500 </v>
   <v>       0.40051500       0.90051500       0.16039500 </v>
   <v>       0.40051500       0.90051500       0.66039500 </v>
   <v>       0.90051500       0.40051500       0.16039500 </v>
   <v>       0.90051500       0.40051500       0.66039500 </v>
   <v>       0.90051500       0.90051500       0.16039500 </v>
   <v>       0.90051500       0.90051500       0.66039500 </v>
   <v>       0.40051500       0.16039500       0.40051500 </v>
   <v>       0.40051500       0.16039500       0.90051500 </v>
   <v>       0.40051500       0.66039500       0.40051500 </v>
   <v>       0.40051500       0.66039500       0.90051500 </v>
   <v>       0.90051500       0.16039500       0.40051500 </v>
   <v>       0.90051500       0.16039500       0.90051500 </v>
   <v>       0.90051500       0.66039500       0.40051500 </v>
   <v>       0.90051500       0.66039500       0.90051500 </v>
   <v>       0.33960500       0.09948500       0.09948500 </v>
   <v>       0.33960500       0.09948500       0.59948500 </v>
   <v>       0.33960500       0.59948500       0.09948500 </v>
   <v>       0.33960500       0.59948500       0.59948500 </v>
   <v>       0.83960500       0.09948500       0.09948500 </v>
   <v>       0.83960500       0.09948500       0.59948500 </v>
   <v>       0.83960500       0.59948500       0.09948500 </v>
   <v>       0.83960500       0.59948500       0.59948500 </v>
   <v>       0.09948500       0.09948500       0.33960500 </v>
   <v>       0.09948500       0.09948500       0.83960500 </v>
   <v>       0.09948500       0.59948500       0.33960500 </v>
   <v>       0.09948500       0.59948500       0.83960500 </v>
   <v>       0.59948500       0.09948500       0.33960500 </v>
   <v>       0.59948500       0.09948500       0.83960500 </v>
   <v>       0.59948500       0.59948500       0.33960500 </v>
   <v>       0.59948500       0.59948500       0.83960500 </v>
   <v>       0.09948500       0.33960500       0.09948500 </v>
   <v>       0.09948500       0.33960500       0.59948500 </v>
   <v>       0.09948500       0.83960500       0.09948500 </v>
   <v>       0.09948500       0.83960500       0.59948500 </v>
   <v>       0.59948500       0.33960500       0.09948500 </v>
   <v>       0.59948500       0.33960500       0.59948500 </v>
   <v>       0.59948500       0.83960500       0.09948500 </v>
   <v>       0.59948500       0.83960500       0.59948500 </v>
   <v>       0.33229300       0.00011500       0.00011500 </v>
   <v>       0.33229300       0.00011500       0.50011500 </v>
   <v>       0.33229300       0.50011500       0.00011500 </v>
   <v>       0.33229300       0.50011500       0.50011500 </v>
   <v>       0.83229300       0.00011500       0.00011500 </v>
   <v>       0.83229300       0.00011500       0.50011500 </v>
   <v>       0.83229300       0.50011500       0.00011500 </v>
   <v>       0.83229300       0.50011500       0.50011500 </v>
   <v>       0.00011500       0.00011500       0.33229300 </v>
   <v>       0.00011500       0.00011500       0.83229300 </v>
   <v>       0.00011500       0.50011500       0.33229300 </v>
   <v>       0.00011500       0.50011500       0.83229300 </v>
   <v>       0.50011500       0.00011500       0.33229300 </v>
   <v>       0.50011500       0.00011500       0.83229300 </v>
   <v>       0.50011500       0.50011500       0.33229300 </v>
   <v>       0.50011500       0.50011500       0.83229300 </v>
   <v>       0.00011500       0.33229300       0.00011500 </v>
   <v>       0.00011500       0.33229300       0.50011500 </v>
   <v>       0.00011500       0.83229300       0.00011500 </v>
   <v>       0.00011500       0.83229300       0.50011500 </v>
   <v>       0.50011500       0.33229300       0.00011500 </v>
   <v>       0.50011500       0.33229300       0.50011500 </v>
   <v>       0.50011500       0.83229300       0.00011500 </v>
   <v>       0.50011500       0.83229300       0.50011500 </v>
   <v>       0.16770700       0.99988500       0.99988500 </v>
   <v>       0.16770700       0.99988500       0.49988500 </v>
   <v>       0.16770700       0.49988500       0.99988500 </v>
   <v>       0.16770700       0.49988500       0.49988500 </v>
   <v>       0.66770700       0.99988500       0.99988500 </v>
   <v>       0.66770700       0.99988500       0.49988500 </v>
   <v>       0.66770700       0.49988500       0.99988500 </v>
   <v>       0.66770700       0.49988500       0.49988500 </v>
   <v>       0.99988500       0.99988500       0.16770700 </v>
   <v>       0.99988500       0.99988500       0.66770700 </v>
   <v>       0.99988500       0.49988500       0.16770700 </v>
   <v>       0.99988500       0.49988500       0.66770700 </v>
   <v>       0.49988500       0.99988500       0.16770700 </v>
   <v>       0.49988500       0.99988500       0.66770700 </v>
   <v>       0.49988500       0.49988500       0.16770700 </v>
   <v>       0.49988500       0.49988500       0.66770700 </v>
   <v>       0.99988500       0.16770700       0.99988500 </v>
   <v>       0.99988500       0.16770700       0.49988500 </v>
   <v>       0.99988500       0.66770700       0.99988500 </v>
   <v>       0.99988500       0.66770700       0.49988500 </v>
   <v>       0.49988500       0.16770700       0.99988500 </v>
   <v>       0.49988500       0.16770700       0.49988500 </v>
   <v>       0.49988500       0.66770700       0.99988500 </v>
   <v>       0.49988500       0.66770700       0.49988500 </v>
   <v>       0.31539700       0.31539700       0.31539700 </v>
   <v>       0.31539700       0.31539700       0.81539700 </v>
   <v>       0.31539700       0.81539700       0.31539700 </v>
   <v>       0.31539700       0.81539700       0.81539700 </v>
   <v>       0.81539700       0.31539700       0.31539700 </v>
   <v>       0.81539700       0.31539700       0.81539700 </v>
   <v>       0.81539700       0.81539700       0.31539700 </v>
   <v>       0.81539700       0.81539700       0.81539700 </v>
   <v>       0.18460300       0.18460300       0.18460300 </v>
   <v>       0.18460300       0.18460300       0.68460300 </v>
   <v>       0.18460300       0.68460300       0.18460300 </v>
   <v>       0.18460300       0.68460300       0.68460300 </v>
   <v>       0.68460300       0.18460300       0.18460300 </v>
   <v>       0.68460300       0.18460300       0.68460300 </v>
   <v>       0.68460300       0.68460300       0.18460300 </v>
   <v>       0.68460300       0.68460300       0.68460300 </v>
  </varray>
 </structure>
 <calculation>
  <scstep>
   <time name="dav">    6.38    6.39</time>
   <time name="total">    6.70    6.70</time>
   <energy>
    <i name="alphaZ">   1039.31075515 </i>
    <i name="ewald">  -9911.23676837 </i>
    <i name="hartreedc">  -1135.12970822 </i>
    <i name="XCdc">    903.58030006 </i>
    <i name="pawpsdc">   5912.33983061 </i>
    <i name="pawaedc">  -5839.33960861 </i>
    <i name="eentropy">      0.00000000 </i>
    <i name="bandstr">   1253.77955210 </i>
    <i name="atom">   9186.75495500 </i>
    <i name="e_fr_energy">   1410.05930773 </i>
    <i name="e_wo_entrp">   1410.05930773 </i>
    <i name="e_0_energy">   1410.05930773 </i>
   </energy>
  </scstep>
  <scstep>
   <time name="dav">    7.47    7.47</time>
   <time name="total">    7.50    7.50</time>
   <energy>
    <i name="e_fr_energy">   -692.31171370 </i>
    <i name="e_wo_entrp">   -692.31171370 </i>
    <i name="e_0_energy">   -692.31171370 </i>
   </energy>
  </scstep>
  <scstep>
   <time name="dav">    7.28    7.29</time>
   <time name="total">    7.31    7.31</time>
   <energy>
    <i name="e_fr_energy">   -822.77746918 </i>
    <i name="e_wo_entrp">   -822.77746918 </i>
    <i name="e_0_energy">   -822.77746918 </i>
   </energy>
  </scstep>
  <scstep>
   <time name="dav">    7.18    7.17</time>
   <time name="total">    7.20    7.20</time>
   <energy>
    <i name="e_fr_energy">   -825.91045313 </i>
    <i name="e_wo_entrp">   -825.91045313 </i>
    <i name="e_0_energy">   -825.91045313 </i>
   </energy>
  </scstep>
  <scstep>
   <time name="dav">    7.21    7.22</time>
   <time name="total">    9.05    9.06</time>
   <energy>
    <i name="e_fr_energy">   -825.99979016 </i>
    <i name="e_wo_entrp">   -825.99979016 </i>
    <i name="e_0_energy">   -825.99979016 </i>
   </energy>
  </scstep>
  <scstep>
   <time name="diag">    1.36    1.36</time>
   <time name="diis">    5.77    5.74</time>
   <time name="orth">    0.04    0.04</time>
   <time name="total">    9.22    9.19</time>
   <energy>
    <i name="e_fr_energy">   -785.30746921 </i>
    <i name="e_wo_entrp">   -785.30746921 </i>
    <i name="e_0_energy">   -785.30746921 </i>
   </energy>
  </scstep>
  <scstep>
   <time name="diag">    1.36    1.36</time>
   <time name="diis">    5.76    5.73</time>
   <time name="orth">    0.03    0.03</time>
   <time name="total">    9.23    9.20</time>
   <energy>
    <i name="e_fr_energy">   -773.79196049 </i>
    <i name="e_wo_entrp">   -773.79196049 </i>
    <i name="e_0_energy">   -773.79196049 </i>
   </energy>
  </scstep>
  <scstep>
   <time name="diag">    1.37    1.37</time>
   <time name="diis">    5.75    5.72</time>
   <time name="orth">    0.03    0.03</time>
   <time name="total">    9.23    9.20</time>
   <energy>
    <i name="e_fr_energy">   -773.85669773 </i>
    <i name="e_wo_entrp">   -773.85669773 </i>
    <i name="e_0_energy">   -773.85669773 </i>
   </energy>
  </scstep>
  <scstep>
   <time name="diag">    1.36    1.36</time>
   <time name="diis">    5.83    5.80</time>
   <time name="orth">    0.03    0.03</time>
   <time name="total">    9.27    9.23</time>
   <energy>
    <i name="e_fr_energy">   -773.92445875 </i>
    <i name="e_wo_entrp">   -773.92445875 </i>
    <i name="e_0_energy">   -773.92445875 </i>
   </energy>
  </scstep>
  <scstep>
   <time name="diag">    1.37    1.37</time>
   <time name="diis">    5.77    5.74</time>
   <time name="orth">    0.03    0.03</time>
   <time name="total">    9.26    9.23</time>
   <energy>
    <i name="e_fr_energy">   -773.92781870 </i>
    <i name="e_wo_entrp">   -773.92781870 </i>
    <i name="e_0_energy">   -773.92781870 </i>
   </energy>
  </scstep>
  <scstep>
   <time name="diag">    1.36    1.36</time>
   <time name="diis">    5.93    5.89</time>
   <time name="orth">    0.03    0.03</time>
   <time name="total">    9.40    9.37</time>
   <energy>
    <i name="e_fr_energy">   -773.93135590 </i>
    <i name="e_wo_entrp">   -773.93135590 </i>
    <i name="e_0_energy">   -773.93135590 </i>
   </energy>
  </scstep>
  <scstep>
   <time name="diag">    1.37    1.37</time>
   <time name="diis">    5.86    5.82</time>
   <time name="orth">    0.04    0.04</time>
   <time name="total">    9.32    9.29</time>
   <energy>
    <i name="e_fr_energy">   -773.93196932 </i>
    <i name="e_wo_entrp">   -773.93196932 </i>
    <i name="e_0_energy">   -773.93196932 </i>
   </energy>
  </scstep>
  <scstep>
   <time name="diag">    1.37    1.37</time>
   <time name="diis">    5.95    5.91</time>
   <time name="orth">    0.03    0.03</time>
   <time name="total">    9.42    9.39</time>
   <energy>
    <i name="e_fr_energy">   -773.93203225 </i>
    <i name="e_wo_entrp">   -773.93203225 </i>
    <i name="e_0_energy">   -773.93203225 </i>
   </energy>
  </scstep>
  <scstep>
   <time name="diag">    1.36    1.36</time>
   <time name="diis">    6.02    5.98</time>
   <time name="orth">    0.03    0.03</time>
   <time name="total">    9.51    9.48</time>
   <energy>
    <i name="e_fr_energy">   -773.93209106 </i>
    <i name="e_wo_entrp">   -773.93209106 </i>
    <i name="e_0_energy">   -773.93209106 </i>
   </energy>
  </scstep>
  <scstep>
   <time name="diag">    1.36    1.36</time>
   <time name="diis">    5.87    5.84</time>
   <time name="orth">    0.03    0.03</time>
   <time name="total">    9.32    9.29</time>
   <energy>
    <i name="e_fr_energy">   -773.93210300 </i>
    <i name="e_wo_entrp">   -773.93210300 </i>
    <i name="e_0_energy">   -773.93210300 </i>
   </energy>
  </scstep>
  <scstep>
   <time name="diag">    1.36    1.36</time>
   <time name="diis">    5.88    5.84</time>
   <time name="orth">    0.03    0.03</time>
   <time name="total">    9.33    9.30</time>
   <energy>
    <i name="e_fr_energy">   -773.93209591 </i>
    <i name="e_wo_entrp">   -773.93209591 </i>
    <i name="e_0_energy">   -773.93209591 </i>
   </energy>
  </scstep>
  <scstep>
   <time name="diag">    1.35    1.35</time>
   <time name="diis">    4.34    4.32</time>
   <time name="orth">    0.03    0.03</time>
   <time name="total">    7.81    7.80</time>
   <energy>
    <i name="e_fr_energy">   -773.93209792 </i>
    <i name="e_wo_entrp">   -773.93209792 </i>
    <i name="e_0_energy">   -773.93209792 </i>
   </energy>
  </scstep>
  <scstep>
   <time name="diag">    1.36    1.36</time>
   <time name="diis">    3.77    3.76</time>
   <time name="orth">    0.03    0.03</time>
   <time name="total">    5.45    5.44</time>
   <energy>
    <i name="alphaZ">   1039.31075515 </i>
    <i name="ewald">  -9911.23676837 </i>
    <i name="hartreedc">  -1593.33069080 </i>
    <i name="XCdc">    935.55218657 </i>
    <i name="pawpsdc">  34300.13966127 </i>
    <i name="pawaedc"> -34237.75388679 </i>
    <i name="eentropy">      0.00000000 </i>
    <i name="bandstr">   -493.36831032 </i>
    <i name="atom">   9186.75495500 </i>
    <i name="e_fr_energy">   -773.93209828 </i>
    <i name="e_wo_entrp">   -773.93209828 </i>
    <i name="e_0_energy">   -773.93209828 </i>
   </energy>
  </scstep>
  <structure>
   <crystal>
    <varray name="basis" >
     <v>       9.42496400       0.84782600       4.23662900 </v>
     <v>       2.79597900       9.77624100       4.23662900 </v>
     <v>       0.09774300       1.93772500      10.19272500 </v>
    </varray>
    <i name="volume">    856.88572385 </i>
    <varray name="rec_basis" >
     <v>       0.10670864      -0.03277513       0.00520755 </v>
     <v>      -0.00050443       0.11162745      -0.02121650 </v>
     <v>      -0.04414402      -0.03277514       0.10476335 </v>
    </varray>
   </crystal>
   <varray name="positions" >
    <v>       0.16039500       0.40051500       0.40051500 </v>
    <v>       0.16039500       0.40051500       0.90051500 </v>
    <v>       0.16039500       0.90051500       0.40051500 </v>
    <v>       0.16039500       0.90051500       0.90051500 </v>
    <v>       0.66039500       0.40051500       0.40051500 </v>
    <v>       0.66039500       0.40051500       0.90051500 </v>
    <v>       0.66039500       0.90051500       0.40051500 </v>
    <v>       0.66039500       0.90051500       0.90051500 </v>
    <v>       0.40051500       0.40051500       0.16039500 </v>
    <v>       0.40051500       0.40051500       0.66039500 </v>
    <v>       0.40051500       0.90051500       0.16039500 </v>
    <v>       0.40051500       0.90051500       0.66039500 </v>
    <v>       0.90051500       0.40051500       0.16039500 </v>
    <v>       0.90051500       0.40051500       0.66039500 </v>
    <v>       0.90051500       0.90051500       0.16039500 </v>
    <v>       0.90051500       0.90051500       0.66039500 </v>
    <v>       0.40051500       0.16039500       0.40051500 </v>
    <v>       0.40051500       0.16039500       0.90051500 </v>
    <v>       0.40051500       0.66039500       0.40051500 </v>
    <v>       0.40051500       0.66039500       0.90051500 </v>
    <v>       0.90051500       0.16039500       0.40051500 </v>
    <v>       0.90051500       0.16039500       0.90051500 </v>
    <v>       0.90051500       0.66039500       0.40051500 </v>
    <v>       0.90051500       0.66039500       0.90051500 </v>
    <v>       0.33960500       0.09948500       0.09948500 </v>
    <v>       0.33960500       0.09948500       0.59948500 </v>
    <v>       0.33960500       0.59948500       0.09948500 </v>
    <v>       0.33960500       0.59948500       0.59948500 </v>
    <v>       0.83960500       0.09948500       0.09948500 </v>
    <v>       0.83960500       0.09948500       0.59948500 </v>
    <v>       0.83960500       0.59948500       0.09948500 </v>
    <v>       0.83960500       0.59948500       0.59948500 </v>
    <v>       0.09948500       0.09948500       0.33960500 </v>
    <v>       0.09948500       0.09948500       0.83960500 </v>
    <v>       0.09948500       0.59948500       0.33960500 </v>
    <v>       0.09948500       0.59948500       0.83960500 </v>
    <v>       0.59948500       0.09948500       0.33960500 </v>
    <v>       0.59948500       0.09948500       0.83960500 </v>
    <v>       0.59948500       0.59948500       0.33960500 </v>
    <v>       0.59948500       0.59948500       0.83960500 </v>
    <v>       0.09948500       0.33960500       0.09948500 </v>
    <v>       0.09948500       0.33960500       0.59948500 </v>
    <v>       0.09948500       0.83960500       0.09948500 </v>
    <v>       0.09948500       0.83960500       0.59948500 </v>
    <v>       0.59948500       0.33960500       0.09948500 </v>
    <v>       0.59948500       0.33960500       0.59948500 </v>
    <v>       0.59948500       0.83960500       0.09948500 </v>
    <v>       0.59948500       0.83960500       0.59948500 </v>
    <v>       0.33229300       0.00011500       0.00011500 </v>
    <v>       0.33229300       0.00011500       0.50011500 </v>
    <v>       0.33229300       0.50011500       0.00011500 </v>
    <v>       0.33229300       0.50011500       0.50011500 </v>
    <v>       0.83229300       0.00011500       0.00011500 </v>
    <v>       0.83229300       0.00011500       0.50011500 </v>
    <v>       0.83229300       0.50011500       0.00011500 </v>
    <v>       0.83229300       0.50011500       0.50011500 </v>
    <v>       0.00011500       0.00011500       0.33229300 </v>
    <v>       0.00011500       0.00011500       0.83229300 </v>
    <v>       0.00011500       0.50011500       0.33229300 </v>
    <v>       0.00011500       0.50011500       0.83229300 </v>
    <v>       0.50011500       0.00011500       0.33229300 </v>
    <v>       0.50011500       0.00011500       0.83229300 </v>
    <v>       0.50011500       0.50011500       0.33229300 </v>
    <v>       0.50011500       0.50011500       0.83229300 </v>
    <v>       0.00011500       0.33229300       0.00011500 </v>
    <v>       0.00011500       0.33229300       0.50011500 </v>
    <v>       0.00011500       0.83229300       0.00011500 </v>
    <v>       0.00011500       0.83229300       0.50011500 </v>
    <v>       0.50011500       0.33229300       0.00011500 </v>
    <v>       0.50011500       0.33229300       0.50011500 </v>
    <v>       0.50011500       0.83229300       0.00011500 </v>
    <v>       0.50011500       0.83229300       0.50011500 </v>
    <v>       0.16770700       0.99988500       0.99988500 </v>
    <v>       0.16770700       0.99988500       0.49988500 </v>
    <v>       0.16770700       0.49988500       0.99988500 </v>
    <v>       0.16770700       0.49988500       0.49988500 </v>
    <v>       0.66770700       0.99988500       0.99988500 </v>
    <v>       0.66770700       0.99988500       0.49988500 </v>
    <v>       0.66770700       0.49988500       0.99988500 </v>
    <v>       0.66770700       0.49988500       0.49988500 </v>
    <v>       0.99988500       0.99988500       0.16770700 </v>
    <v>       0.99988500       0.99988500       0.66770700 </v>
    <v>       0.99988500       0.49988500       0.16770700 </v>
    <v>       0.99988500       0.49988500       0.66770700 </v>
    <v>       0.49988500       0.99988500       0.16770700 </v>
    <v>       0.49988500       0.99988500       0.66770700 </v>
    <v>       0.49988500       0.49988500       0.16770700 </v>
    <v>       0.49988500       0.49988500       0.66770700 </v>
    <v>       0.99988500       0.16770700       0.99988500 </v>
    <v>       0.99988500       0.16770700       0.49988500 </v>
    <v>       0.99988500       0.66770700       0.99988500 </v>
    <v>       0.99988500       0.66770700       0.49988500 </v>
    <v>       0.49988500       0.16770700       0.99988500 </v>
    <v>       0.49988500       0.16770700       0.49988500 </v>
    <v>       0.49988500       0.66770700       0.99988500 </v>
    <v>       0.49988500       0.66770700       0.49988500 </v>
    <v>       0.31539700       0.31539700       0.31539700 </v>
    <v>       0.31539700       0.31539700       0.81539700 </v>
    <v>       0.31539700       0.81539700       0.31539700 </v>
    <v>       0.31539700       0.81539700       0.81539700 </v>
    <v>       0.81539700       0.31539700       0.31539700 </v>
    <v>       0.81539700       0.31539700       0.81539700 </v>
    <v>       0.81539700       0.81539700       0.31539700 </v>
    <v>       0.81539700       0.81539700       0.81539700 </v>
    <v>       0.18460300       0.18460300       0.18460300 </v>
    <v>       0.18460300       0.18460300       0.68460300 </v>
    <v>       0.18460300       0.68460300       0.18460300 </v>
    <v>       0.18460300       0.68460300       0.68460300 </v>
    <v>       0.68460300       0.18460300       0.18460300 </v>
    <v>       0.68460300       0.18460300       0.68460300 </v>
    <v>       0.68460300       0.68460300       0.18460300 </v>
    <v>       0.68460300       0.68460300       0.68460300 </v>
   </varray>
  </structure>
  <varray name="forces" >
   <v>       0.99918099       0.39116924       0.13206492 </v>
   <v>       0.99918099       0.39116924       0.13206492 </v>
   <v>       0.99918099       0.39116924       0.13206492 </v>
   <v>       0.99918099       0.39116924       0.13206492 </v>
   <v>       0.99918099       0.39116924       0.13206492 </v>
   <v>       0.99918099       0.39116924       0.13206492 </v>
   <v>       0.99918099       0.39116924       0.13206492 </v>
   <v>       0.99918099       0.39116924       0.13206492 </v>
   <v>       1.32052341       0.49118590       0.66088569 </v>
   <v>       1.32052341       0.49118590       0.66088569 </v>
   <v>       1.32052341       0.49118590       0.66088569 </v>
   <v>       1.32052341       0.49118590       0.66088569 </v>
   <v>       1.32052341       0.49118590       0.66088569 </v>
   <v>       1.32052341       0.49118590       0.66088569 </v>
   <v>       1.32052341       0.49118590       0.66088569 </v>
   <v>       1.32052341       0.49118590       0.66088569 </v>
   <v>       0.12949871      -1.62325947      -0.83600757 </v>
   <v>       0.12949871      -1.62325947      -0.83600757 </v>
   <v>       0.12949871      -1.62325947      -0.83600757 </v>
   <v>       0.12949871      -1.62325947      -0.83600757 </v>
   <v>       0.12949871      -1.62325947      -0.83600757 </v>
   <v>       0.12949871      -1.62325947      -0.83600757 </v>
   <v>       0.12949871      -1.62325947      -0.83600757 </v>
   <v>       0.12949871      -1.62325947      -0.83600757 </v>
   <v>      -0.99918099      -0.39116924      -0.13206492 </v>
   <v>      -0.99918099      -0.39116924      -0.13206492 </v>
   <v>      -0.99918099      -0.39116924      -0.13206492 </v>
   <v>      -0.99918099      -0.39116924      -0.13206492 </v>
   <v>      -0.99918099      -0.39116924      -0.13206492 </v>
   <v>      -0.99918099      -0.39116924      -0.13206492 </v>
   <v>      -0.99918099      -0.39116924      -0.13206492 </v>
   <v>      -0.99918099      -0.39116924      -0.13206492 </v>
   <v>      -1.32052341      -0.49118590      -0.66088569 </v>
   <v>      -1.32052341      -0.49118590      -0.66088569 </v>
   <v>      -1.32052341      -0.49118590      -0.66088569 </v>
   <v>      -1.32052341      -0.49118590      -0.66088569 </v>
   <v>      -1.32052341      -0.49118590      -0.66088569 </v>
   <v>      -1.32052341      -0.49118590      -0.66088569 </v>
   <v>      -1.32052341      -0.49118590      -0.66088569 </v>
   <v>      -1.32052341      -0.49118590      -0.66088569 </v>
   <v>      -0.12949871       1.62325947       0.83600757 </v>
   <v>      -0.12949871       1.62325947       0.83600757 </v>
   <v>      -0.12949871       1.62325947       0.83600757 </v>
   <v>      -0.12949871       1.62325947       0.83600757 </v>
   <v>      -0.12949871       1.62325947       0.83600757 </v>
   <v>      -0.12949871       1.62325947       0.83600757 </v>
   <v>      -0.12949871       1.62325947       0.83600757 </v>
   <v>      -0.12949871       1.62325947       0.83600757 </v>
   <v>      -0.25144453       0.48639409      -0.67693067 </v>
   <v>      -0.25144453       0.48639409      -0.67693067 </v>
   <v>      -0.25144453       0.48639409      -0.67693067 </v>
   <v>      -0.25144453       0.48639409      -0.67693067 </v>
   <v>      -0.25144453       0.48639409      -0.67693067 </v>
   <v>      -0.25144453       0.48639409      -0.67693067 </v>
   <v>      -0.25144453       0.48639409      -0.67693067 </v>
   <v>      -0.25144453       0.48639409      -0.67693067 </v>
   <v>       0.01497643       1.07359373      -0.53332351 </v>
   <v>       0.01497643       1.07359373      -0.53332351 </v>
   <v>       0.01497643       1.07359373      -0.53332351 </v>
   <v>       0.01497643       1.07359373      -0.53332351 </v>
   <v>       0.01497643       1.07359373      -0.53332351 </v>
   <v>       0.01497643       1.07359373      -0.53332351 </v>
   <v>       0.01497643       1.07359373      -0.53332351 </v>
   <v>       0.01497643       1.07359373      -0.53332351 </v>
   <v>      -0.28490657      -0.66989241       0.58081114 </v>
   <v>      -0.28490657      -0.66989241       0.58081114 </v>
   <v>      -0.28490657      -0.66989241       0.58081114 </v>
   <v>      -0.28490657      -0.66989241       0.58081114 </v>
   <v>      -0.28490657      -0.66989241       0.58081114 </v>
   <v>      -0.28490657      -0.66989241       0.58081114 </v>
   <v>      -0.28490657      -0.66989241       0.58081114 </v>
   <v>      -0.28490657      -0.66989241       0.58081114 </v>
   <v>       0.25144453      -0.48639409       0.67693067 </v>
   <v>       0.25144453      -0.48639409       0.67693067 </v>
   <v>       0.25144453      -0.48639409       0.67693067 </v>
   <v>       0.25144453      -0.48639409       0.67693067 </v>
   <v>       0.25144453      -0.48639409       0.67693067 </v>
   <v>       0.25144453      -0.48639409       0.67693067 </v>
   <v>       0.25144453      -0.48639409       0.67693067 </v>
   <v>       0.25144453      -0.48639409       0.67693067 </v>
   <v>      -0.01497643      -1.07359373       0.53332351 </v>
   <v>      -0.01497643      -1.07359373       0.53332351 </v>
   <v>      -0.01497643      -1.07359373       0.53332351 </v>
   <v>      -0.01497643      -1.07359373       0.53332351 </v>
   <v>      -0.01497643      -1.07359373       0.53332351 </v>
   <v>      -0.01497643      -1.07359373       0.53332351 </v>
   <v>      -0.01497643      -1.07359373       0.53332351 </v>
   <v>      -0.01497643      -1.07359373       0.53332351 </v>
   <v>       0.28490657       0.66989241      -0.58081114 </v>
   <v>       0.28490657       0.66989241      -0.58081114 </v>
   <v>       0.28490657       0.66989241      -0.58081114 </v>
   <v>       0.28490657       0.66989241      -0.58081114 </v>
   <v>       0.28490657       0.66989241      -0.58081114 </v>
   <v>       0.28490657       0.66989241      -0.58081114 </v>
   <v>       0.28490657       0.66989241      -0.58081114 </v>
   <v>       0.28490657       0.66989241      -0.58081114 </v>
   <v>      -2.01868524       1.81629349       0.58966596 </v>
   <v>      -2.01868524       1.81629349       0.58966596 </v>
   <v>      -2.01868524       1.81629349       0.58966596 </v>
   <v>      -2.01868524       1.81629349       0.58966596 </v>
   <v>      -2.01868524       1.81629349       0.58966596 </v>
   <v>      -2.01868524       1.81629349       0.58966596 </v>
   <v>      -2.01868524       1.81629349       0.58966596 </v>
   <v>      -2.01868524       1.81629349       0.58966596 </v>
   <v>       2.01868524      -1.81629349      -0.58966596 </v>
   <v>       2.01868524      -1.81629349      -0.58966596 </v>
   <v>       2.01868524      -1.81629349      -0.58966596 </v>
   <v>       2.01868524      -1.81629349      -0.58966596 </v>
   <v>       2.01868524      -1.81629349      -0.58966596 </v>
   <v>       2.01868524      -1.81629349      -0.58966596 </v>
   <v>       2.01868524      -1.81629349      -0.58966596 </v>
   <v>       2.01868524      -1.81629349      -0.58966596 </v>
  </varray>
  <varray name="stress" >
   <v>      36.10681583      39.40097686     -29.39387013 </v>
   <v>      39.40097685      93.99278132    -396.97698690 </v>
   <v>     -29.39387005    -396.97698693     181.67733398 </v>
  </varray>
  <energy>
   <i name="e_fr_energy">   -773.93209828 </i>
   <i name="e_wo_entrp">   -773.93209828 </i>
   <i name="e_0_energy">   -773.93209828 </i>
  </energy>
  <time name="totalsc">  176.13  175.75</time>
 </calculation>
 <calculation>
  <scstep>
   <time name="dav">    6.79    6.79</time>
   <time name="total">    8.84    8.83</time>
   <energy>
    <i name="alphaZ">   1039.31075515 </i>
    <i name="ewald"> -10014.96421306 </i>
    <i name="hartreedc">  -1506.78267756 </i>
    <i name="XCdc">    934.47176539 </i>
    <i name="pawpsdc">  34300.19626882 </i>
    <i name="pawaedc"> -34237.81051755 </i>
    <i name="eentropy">      0.00000000 </i>
    <i name="bandstr">   -494.47259547 </i>
    <i name="atom">   9186.75495500 </i>
    <i name="e_fr_energy">   -793.29625928 </i>
    <i name="e_wo_entrp">   -793.29625928 </i>
    <i name="e_0_energy">   -793.29625928 </i>
   </energy>
  </scstep>
  <scstep>
   <time name="diag">    1.36    1.36</time>
   <time name="diis">    5.74    5.84</time>
   <time name="orth">    0.03    0.03</time>
   <time name="total">    9.21    9.30</time>
   <energy>
    <i name="e_fr_energy">   -785.34462487 </i>
    <i name="e_wo_entrp">   -785.34462487 </i>
    <i name="e_0_energy">   -785.34462487 </i>
   </energy>
  </scstep>
  <scstep>
   <time name="diag">    1.36    1.36</time>
   <time name="diis">    5.74    5.84</time>
   <time name="orth">    0.03    0.03</time>
   <time name="total">    9.18    9.27</time>
   <energy>
    <i name="e_fr_energy">   -780.08909219 </i>
    <i name="e_wo_entrp">   -780.08909219 </i>
    <i name="e_0_energy">   -780.08909219 </i>
   </energy>
  </scstep>
  <scstep>
   <time name="diag">    1.36    1.36</time>
   <time name="diis">    5.77    5.87</time>
   <time name="orth">    0.04    0.04</time>
   <time name="total">    9.23    9.33</time>
   <energy>
    <i name="e_fr_energy">   -779.56755515 </i>
    <i name="e_wo_entrp">   -779.56755515 </i>
    <i name="e_0_energy">   -779.56755515 </i>
   </energy>
  </scstep>
  <scstep>
   <time name="diag">    1.35    1.35</time>
   <time name="diis">    5.87    5.96</time>
   <time name="orth">    0.03    0.03</time>
   <time name="total">    9.33    9.42</time>
   <energy>
    <i name="e_fr_energy">   -779.60153813 </i>
    <i name="e_wo_entrp">   -779.60153813 </i>
    <i name="e_0_energy">   -779.60153813 </i>
   </energy>
  </scstep>
  <scstep>
   <time name="diag">    1.36    1.36</time>
   <time name="diis">    5.84    5.94</time>
   <time name="orth">    0.03    0.03</time>
   <time name="total">    9.31    9.40</time>
   <energy>
    <i name="e_fr_energy">   -779.61364032 </i>
    <i name="e_wo_entrp">   -779.61364032 </i>
    <i name="e_0_energy">   -779.61364032 </i>
   </energy>
  </scstep>
  <scstep>
   <time name="diag">    1.36    1.36</time>
   <time name="diis">    5.79    5.89</time>
   <time name="orth">    0.03    0.03</time>
   <time name="total">    9.23    9.33</time>
   <energy>
    <i name="e_fr_energy">   -779.61507001 </i>
    <i name="e_wo_entrp">   -779.61507001 </i>
    <i name="e_0_energy">   -779.61507001 </i>
   </energy>
  </scstep>
  <scstep>
   <time name="diag">    1.37    1.37</time>
   <time name="diis">    6.04    6.06</time>
   <time name="orth">    0.03    0.03</time>
   <time name="total">    9.48    9.50</time>
   <energy>
    <i name="e_fr_energy">   -779.61574931 </i>
    <i name="e_wo_entrp">   -779.61574931 </i>
    <i name="e_0_energy">   -779.61574931 </i>
   </energy>
  </scstep>
  <scstep>
   <time name="diag">    1.36    1.36</time>
   <time name="diis">    5.83    5.80</time>
   <time name="orth">    0.03    0.03</time>
   <time name="total">    9.30    9.27</time>
   <energy>
    <i name="e_fr_energy">   -779.61584300 </i>
    <i name="e_wo_entrp">   -779.61584300 </i>
    <i name="e_0_energy">   -779.61584300 </i>
   </energy>
  </scstep>
  <scstep>
   <time name="diag">    1.37    1.37</time>
   <time name="diis">    6.05    6.02</time>
   <time name="orth">    0.03    0.03</time>
   <time name="total">    9.53    9.50</time>
   <energy>
    <i name="e_fr_energy">   -779.61587186 </i>
    <i name="e_wo_entrp">   -779.61587186 </i>
    <i name="e_0_energy">   -779.61587186 </i>
   </energy>
  </scstep>
  <scstep>
   <time name="diag">    1.35    1.35</time>
   <time name="diis">    5.82    5.79</time>
   <time name="orth">    0.03    0.03</time>
   <time name="total">    9.26    9.23</time>
   <energy>
    <i name="e_fr_energy">   -779.61587708 </i>
    <i name="e_wo_entrp">   -779.61587708 </i>
    <i name="e_0_energy">   -779.61587708 </i>
   </energy>
  </scstep>
  <scstep>
   <time name="diag">    1.36    1.36</time>
   <time name="diis">    5.57    5.54</time>
   <time name="orth">    0.03    0.03</time>
   <time name="total">    9.03    9.00</time>
   <energy>
    <i name="e_fr_energy">   -779.61587853 </i>
    <i name="e_wo_entrp">   -779.61587853 </i>
    <i name="e_0_energy">   -779.61587853 </i>
   </energy>
  </scstep>
  <scstep>
   <time name="diag">    1.36    1.36</time>
   <time name="diis">    4.53    4.51</time>
   <time name="orth">    0.03    0.03</time>
   <time name="total">    6.20    6.18</time>
   <energy>
    <i name="alphaZ">   1039.31075515 </i>
    <i name="ewald"> -10014.96421306 </i>
    <i name="hartreedc">  -1487.03881330 </i>
    <i name="XCdc">    933.45893806 </i>
    <i name="pawpsdc">  34402.57046810 </i>
    <i name="pawaedc"> -34340.18479240 </i>
    <i name="eentropy">      0.00000000 </i>
    <i name="bandstr">   -499.52317661 </i>
    <i name="atom">   9186.75495500 </i>
    <i name="e_fr_energy">   -779.61587905 </i>
    <i name="e_wo_entrp">   -779.61587905 </i>
    <i name="e_0_energy">   -779.61587905 </i>
   </energy>
  </scstep>
  <structure>
   <crystal>
    <varray name="basis" >
     <v>       9.28352129       0.54556331       4.18323455 </v>
     <v>       2.82048732       9.41899421       3.40937151 </v>
     <v>       0.04491429       1.00493935      10.22694717 </v>
    </varray>
    <i name="volume">    856.88572385 </i>
    <varray name="rec_basis" >
     <v>       0.10841743      -0.03348386       0.00281411 </v>
     <v>      -0.00160529       0.11057973      -0.01085894 </v>
     <v>      -0.04381195      -0.02316787       0.10024987 </v>
    </varray>
   </crystal>
   <varray name="positions" >
    <v>       0.16495337       0.40246204       0.39843608 </v>
    <v>       0.16495337       0.40246204       0.89843608 </v>
    <v>       0.16495337       0.90246204       0.39843608 </v>
    <v>       0.16495337       0.90246204       0.89843608 </v>
    <v>       0.66495337       0.40246204       0.39843608 </v>
    <v>       0.66495337       0.40246204       0.89843608 </v>
    <v>       0.66495337       0.90246204       0.39843608 </v>
    <v>       0.66495337       0.90246204       0.89843608 </v>
    <v>       0.40670232       0.40245156       0.16014629 </v>
    <v>       0.40670232       0.40245156       0.66014629 </v>
    <v>       0.40670232       0.90245156       0.16014629 </v>
    <v>       0.40670232       0.90245156       0.66014629 </v>
    <v>       0.90670232       0.40245156       0.16014629 </v>
    <v>       0.90670232       0.40245156       0.66014629 </v>
    <v>       0.90670232       0.90245156       0.16014629 </v>
    <v>       0.90670232       0.90245156       0.66014629 </v>
    <v>       0.40353825       0.15250595       0.39858061 </v>
    <v>       0.40353825       0.15250595       0.89858061 </v>
    <v>       0.40353825       0.65250595       0.39858061 </v>
    <v>       0.40353825       0.65250595       0.89858061 </v>
    <v>       0.90353825       0.15250595       0.39858061 </v>
    <v>       0.90353825       0.15250595       0.89858061 </v>
    <v>       0.90353825       0.65250595       0.39858061 </v>
    <v>       0.90353825       0.65250595       0.89858061 </v>
    <v>       0.33504663       0.09753796       0.10156392 </v>
    <v>       0.33504663       0.09753796       0.60156392 </v>
    <v>       0.33504663       0.59753796       0.10156392 </v>
    <v>       0.33504663       0.59753796       0.60156392 </v>
    <v>       0.83504663       0.09753796       0.10156392 </v>
    <v>       0.83504663       0.09753796       0.60156392 </v>
    <v>       0.83504663       0.59753796       0.10156392 </v>
    <v>       0.83504663       0.59753796       0.60156392 </v>
    <v>       0.09329768       0.09754844       0.33985371 </v>
    <v>       0.09329768       0.09754844       0.83985371 </v>
    <v>       0.09329768       0.59754844       0.33985371 </v>
    <v>       0.09329768       0.59754844       0.83985371 </v>
    <v>       0.59329768       0.09754844       0.33985371 </v>
    <v>       0.59329768       0.09754844       0.83985371 </v>
    <v>       0.59329768       0.59754844       0.33985371 </v>
    <v>       0.59329768       0.59754844       0.83985371 </v>
    <v>       0.09646175       0.34749405       0.10141939 </v>
    <v>       0.09646175       0.34749405       0.60141939 </v>
    <v>       0.09646175       0.84749405       0.10141939 </v>
    <v>       0.09646175       0.84749405       0.60141939 </v>
    <v>       0.59646175       0.34749405       0.10141939 </v>
    <v>       0.59646175       0.34749405       0.60141939 </v>
    <v>       0.59646175       0.84749405       0.10141939 </v>
    <v>       0.59646175       0.84749405       0.60141939 </v>
    <v>       0.33005946       0.00343332      -0.00353983 </v>
    <v>       0.33005946       0.00343332       0.49646017 </v>
    <v>       0.33005946       0.50343332      -0.00353983 </v>
    <v>       0.33005946       0.50343332       0.49646017 </v>
    <v>       0.83005946       0.00343332      -0.00353983 </v>
    <v>       0.83005946       0.00343332       0.49646017 </v>
    <v>       0.83005946       0.50343332      -0.00353983 </v>
    <v>       0.83005946       0.50343332       0.49646017 </v>
    <v>      -0.00163941       0.00644204       0.32786813 </v>
    <v>      -0.00163941       0.00644204       0.82786813 </v>
    <v>      -0.00163941       0.50644204       0.32786813 </v>
    <v>      -0.00163941       0.50644204       0.82786813 </v>
    <v>       0.49836059       0.00644204       0.32786813 </v>
    <v>       0.49836059       0.00644204       0.82786813 </v>
    <v>       0.49836059       0.50644204       0.32786813 </v>
    <v>       0.49836059       0.50644204       0.82786813 </v>
    <v>      -0.00014655       0.32809794       0.00471641 </v>
    <v>      -0.00014655       0.32809794       0.50471641 </v>
    <v>      -0.00014655       0.82809794       0.00471641 </v>
    <v>      -0.00014655       0.82809794       0.50471641 </v>
    <v>       0.49985345       0.32809794       0.00471641 </v>
    <v>       0.49985345       0.32809794       0.50471641 </v>
    <v>       0.49985345       0.82809794       0.00471641 </v>
    <v>       0.49985345       0.82809794       0.50471641 </v>
    <v>       0.16994054       0.99656668       0.00353983 </v>
    <v>       0.16994054       0.99656668       0.50353983 </v>
    <v>       0.16994054       0.49656668       0.00353983 </v>
    <v>       0.16994054       0.49656668       0.50353983 </v>
    <v>       0.66994054       0.99656668       0.00353983 </v>
    <v>       0.66994054       0.99656668       0.50353983 </v>
    <v>       0.66994054       0.49656668       0.00353983 </v>
    <v>       0.66994054       0.49656668       0.50353983 </v>
    <v>       0.00163941       0.99355796       0.17213187 </v>
    <v>       0.00163941       0.99355796       0.67213187 </v>
    <v>       0.00163941       0.49355796       0.17213187 </v>
    <v>       0.00163941       0.49355796       0.67213187 </v>
    <v>       0.50163941       0.99355796       0.17213187 </v>
    <v>       0.50163941       0.99355796       0.67213187 </v>
    <v>       0.50163941       0.49355796       0.17213187 </v>
    <v>       0.50163941       0.49355796       0.67213187 </v>
    <v>       0.00014655       0.17190206       0.99528359 </v>
    <v>       0.00014655       0.17190206       0.49528359 </v>
    <v>       0.00014655       0.67190206       0.99528359 </v>
    <v>       0.00014655       0.67190206       0.49528359 </v>
    <v>       0.50014655       0.17190206       0.99528359 </v>
    <v>       0.50014655       0.17190206       0.49528359 </v>
    <v>       0.50014655       0.67190206       0.99528359 </v>
    <v>       0.50014655       0.67190206       0.49528359 </v>
    <v>       0.30228128       0.32462369       0.31980440 </v>
    <v>       0.30228128       0.32462369       0.81980440 </v>
    <v>       0.30228128       0.82462369       0.31980440 </v>
    <v>       0.30228128       0.82462369       0.81980440 </v>
    <v>       0.80228128       0.32462369       0.31980440 </v>
    <v>       0.80228128       0.32462369       0.81980440 </v>
    <v>       0.80228128       0.82462369       0.31980440 </v>
    <v>       0.80228128       0.82462369       0.81980440 </v>
    <v>       0.19771872       0.17537631       0.18019560 </v>
    <v>       0.19771872       0.17537631       0.68019560 </v>
    <v>       0.19771872       0.67537631       0.18019560 </v>
    <v>       0.19771872       0.67537631       0.68019560 </v>
    <v>       0.69771872       0.17537631       0.18019560 </v>
    <v>       0.69771872       0.17537631       0.68019560 </v>
    <v>       0.69771872       0.67537631       0.18019560 </v>
    <v>       0.69771872       0.67537631       0.68019560 </v>
   </varray>
  </structure>
  <varray name="forces" >
   <v>      -4.82109862       2.19072832       1.57662649 </v>
   <v>      -4.82109862       2.19072832       1.57662649 </v>
   <v>      -4.82109862       2.19072832       1.57662649 </v>
   <v>      -4.82109862       2.19072832       1.57662649 </v>
   <v>      -4.82109862       2.19072832       1.57662649 </v>
   <v>      -4.82109862       2.19072832       1.57662649 </v>
   <v>      -4.82109862       2.19072832       1.57662649 </v>
   <v>      -4.82109862       2.19072832       1.57662649 </v>
   <v>      -2.74098441      -0.85757398       0.02851815 </v>
   <v>      -2.74098441      -0.85757398       0.02851815 </v>
   <v>      -2.74098441      -0.85757398       0.02851815 </v>
   <v>      -2.74098441      -0.85757398       0.02851815 </v>
   <v>      -2.74098441      -0.85757398       0.02851815 </v>
   <v>      -2.74098441      -0.85757398       0.02851815 </v>
   <v>      -2.74098441      -0.85757398       0.02851815 </v>
   <v>      -2.74098441      -0.85757398       0.02851815 </v>
   <v>      -1.47193665       3.44151421      -0.11465749 </v>
   <v>      -1.47193665       3.44151421      -0.11465749 </v>
   <v>      -1.47193665       3.44151421      -0.11465749 </v>
   <v>      -1.47193665       3.44151421      -0.11465749 </v>
   <v>      -1.47193665       3.44151421      -0.11465749 </v>
   <v>      -1.47193665       3.44151421      -0.11465749 </v>
   <v>      -1.47193665       3.44151421      -0.11465749 </v>
   <v>      -1.47193665       3.44151421      -0.11465749 </v>
   <v>       4.82109862      -2.19072832      -1.57662649 </v>
   <v>       4.82109862      -2.19072832      -1.57662649 </v>
   <v>       4.82109862      -2.19072832      -1.57662649 </v>
   <v>       4.82109862      -2.19072832      -1.57662649 </v>
   <v>       4.82109862      -2.19072832      -1.57662649 </v>
   <v>       4.82109862      -2.19072832      -1.57662649 </v>
   <v>       4.82109862      -2.19072832      -1.57662649 </v>
   <v>       4.82109862      -2.19072832      -1.57662649 </v>
   <v>       2.74098441       0.85757398      -0.02851815 </v>
   <v>       2.74098441       0.85757398      -0.02851815 </v>
   <v>       2.74098441       0.85757398      -0.02851815 </v>
   <v>       2.74098441       0.85757398      -0.02851815 </v>
   <v>       2.74098441       0.85757398      -0.02851815 </v>
   <v>       2.74098441       0.85757398      -0.02851815 </v>
   <v>       2.74098441       0.85757398      -0.02851815 </v>
   <v>       2.74098441       0.85757398      -0.02851815 </v>
   <v>       1.47193665      -3.44151421       0.11465749 </v>
   <v>       1.47193665      -3.44151421       0.11465749 </v>
   <v>       1.47193665      -3.44151421       0.11465749 </v>
   <v>       1.47193665      -3.44151421       0.11465749 </v>
   <v>       1.47193665      -3.44151421       0.11465749 </v>
   <v>       1.47193665      -3.44151421       0.11465749 </v>
   <v>       1.47193665      -3.44151421       0.11465749 </v>
   <v>       1.47193665      -3.44151421       0.11465749 </v>
   <v>       0.72212309      -0.79659927       0.62254553 </v>
   <v>       0.72212309      -0.79659927       0.62254553 </v>
   <v>       0.72212309      -0.79659927       0.62254553 </v>
   <v>       0.72212309      -0.79659927       0.62254553 </v>
   <v>       0.72212309      -0.79659927       0.62254553 </v>
   <v>       0.72212309      -0.79659927       0.62254553 </v>
   <v>       0.72212309      -0.79659927       0.62254553 </v>
   <v>       0.72212309      -0.79659927       0.62254553 </v>
   <v>      -0.32452883      -1.26399821       0.60369971 </v>
   <v>      -0.32452883      -1.26399821       0.60369971 </v>
   <v>      -0.32452883      -1.26399821       0.60369971 </v>
   <v>      -0.32452883      -1.26399821       0.60369971 </v>
   <v>      -0.32452883      -1.26399821       0.60369971 </v>
   <v>      -0.32452883      -1.26399821       0.60369971 </v>
   <v>      -0.32452883      -1.26399821       0.60369971 </v>
   <v>      -0.32452883      -1.26399821       0.60369971 </v>
   <v>       0.35795852       1.13551596       0.05200797 </v>
   <v>       0.35795852       1.13551596       0.05200797 </v>
   <v>       0.35795852       1.13551596       0.05200797 </v>
   <v>       0.35795852       1.13551596       0.05200797 </v>
   <v>       0.35795852       1.13551596       0.05200797 </v>
   <v>       0.35795852       1.13551596       0.05200797 </v>
   <v>       0.35795852       1.13551596       0.05200797 </v>
   <v>       0.35795852       1.13551596       0.05200797 </v>
   <v>      -0.72212309       0.79659927      -0.62254553 </v>
   <v>      -0.72212309       0.79659927      -0.62254553 </v>
   <v>      -0.72212309       0.79659927      -0.62254553 </v>
   <v>      -0.72212309       0.79659927      -0.62254553 </v>
   <v>      -0.72212309       0.79659927      -0.62254553 </v>
   <v>      -0.72212309       0.79659927      -0.62254553 </v>
   <v>      -0.72212309       0.79659927      -0.62254553 </v>
   <v>      -0.72212309       0.79659927      -0.62254553 </v>
   <v>       0.32452883       1.26399821      -0.60369971 </v>
   <v>       0.32452883       1.26399821      -0.60369971 </v>
   <v>       0.32452883       1.26399821      -0.60369971 </v>
   <v>       0.32452883       1.26399821      -0.60369971 </v>
   <v>       0.32452883       1.26399821      -0.60369971 </v>
   <v>       0.32452883       1.26399821      -0.60369971 </v>
   <v>       0.32452883       1.26399821      -0.60369971 </v>
   <v>       0.32452883       1.26399821      -0.60369971 </v>
   <v>      -0.35795852      -1.13551596      -0.05200797 </v>
   <v>      -0.35795852      -1.13551596      -0.05200797 </v>
   <v>      -0.35795852      -1.13551596      -0.05200797 </v>
   <v>      -0.35795852      -1.13551596      -0.05200797 </v>
   <v>      -0.35795852      -1.13551596      -0.05200797 </v>
   <v>      -0.35795852      -1.13551596      -0.05200797 </v>
   <v>      -0.35795852      -1.13551596      -0.05200797 </v>
   <v>      -0.35795852      -1.13551596      -0.05200797 </v>
   <v>       5.95133002      -4.30797371      -1.88329999 </v>
   <v>       5.95133002      -4.30797371      -1.88329999 </v>
   <v>       5.95133002      -4.30797371      -1.88329999 </v>
   <v>       5.95133002      -4.30797371      -1.88329999 </v>
   <v>       5.95133002      -4.30797371      -1.88329999 </v>
   <v>       5.95133002      -4.30797371      -1.88329999 </v>
   <v>       5.95133002      -4.30797371      -1.88329999 </v>
   <v>       5.95133002      -4.30797371      -1.88329999 </v>
   <v>      -5.95133002       4.30797371       1.88329999 </v>
   <v>      -5.95133002       4.30797371       1.88329999 </v>
   <v>      -5.95133002       4.30797371       1.88329999 </v>
   <v>      -5.95133002       4.30797371       1.88329999 </v>
   <v>      -5.95133002       4.30797371       1.88329999 </v>
   <v>      -5.95133002       4.30797371       1.88329999 </v>
   <v>      -5.95133002       4.30797371       1.88329999 </v>
   <v>      -5.95133002       4.30797371       1.88329999 </v>
  </varray>
  <varray name="stress" >
   <v>     174.14393373     -71.36066845      -6.93556079 </v>
   <v>     -71.36066842      58.23818067     115.50196794 </v>
   <v>      -6.93556078     115.50196802      34.30889478 </v>
  </varray>
  <energy>
   <i name="e_fr_energy">   -779.61587905 </i>
   <i name="e_wo_entrp">   -779.61587905 </i>
   <i name="e_0_energy">   -779.61587905 </i>
  </energy>
  <time name="totalsc">  135.46  135.90</time>
 </calculation>
 <calculation>
  <scstep>
   <time name="dav">    6.65    6.65</time>
   <time name="total">    8.70    8.70</time>
   <energy>
    <i name="alphaZ">   1039.31075515 </i>
    <i name="ewald"> -10021.72298366 </i>
    <i name="hartreedc">  -1491.83520971 </i>
    <i name="XCdc">    933.20601926 </i>
    <i name="pawpsdc">  34402.62848219 </i>
    <i name="pawaedc"> -34340.24279420 </i>
    <i name="eentropy">      0.00000000 </i>
    <i name="bandstr">   -499.87807992 </i>
    <i name="atom">   9186.75495500 </i>
    <i name="e_fr_energy">   -791.77885588 </i>
    <i name="e_wo_entrp">   -791.77885588 </i>
    <i name="e_0_energy">   -791.77885588 </i>
   </energy>
  </scstep>
  <scstep>
   <time name="diag">    1.36    1.36</time>
   <time name="diis">    5.84    5.81</time>
   <time name="orth">    0.03    0.03</time>
   <time name="total">    9.32    9.28</time>
   <energy>
    <i name="e_fr_energy">   -789.92702279 </i>
    <i name="e_wo_entrp">   -789.92702279 </i>
    <i name="e_0_energy">   -789.92702279 </i>
   </energy>
  </scstep>
  <scstep>
   <time name="diag">    1.36    1.36</time>
   <time name="diis">    5.75    5.72</time>
   <time name="orth">    0.04    0.04</time>
   <time name="total">    9.20    9.17</time>
   <energy>
    <i name="e_fr_energy">   -788.80154785 </i>
    <i name="e_wo_entrp">   -788.80154785 </i>
    <i name="e_0_energy">   -788.80154785 </i>
   </energy>
  </scstep>
  <scstep>
   <time name="diag">    1.36    1.36</time>
   <time name="diis">    5.79    5.76</time>
   <time name="orth">    0.03    0.03</time>
   <time name="total">    9.23    9.20</time>
   <energy>
    <i name="e_fr_energy">   -788.81853269 </i>
    <i name="e_wo_entrp">   -788.81853269 </i>
    <i name="e_0_energy">   -788.81853269 </i>
   </energy>
  </scstep>
  <scstep>
   <time name="diag">    1.36    1.36</time>
   <time name="diis">    5.85    5.82</time>
   <time name="orth">    0.03    0.03</time>
   <time name="total">    9.31    9.27</time>
   <energy>
    <i name="e_fr_energy">   -788.82273888 </i>
    <i name="e_wo_entrp">   -788.82273888 </i>
    <i name="e_0_energy">   -788.82273888 </i>
   </energy>
  </scstep>
  <scstep>
   <time name="diag">    1.36    1.36</time>
   <time name="diis">    5.84    5.81</time>
   <time name="orth">    0.03    0.03</time>
   <time name="total">    9.30    9.26</time>
   <energy>
    <i name="e_fr_energy">   -788.82348747 </i>
    <i name="e_wo_entrp">   -788.82348747 </i>
    <i name="e_0_energy">   -788.82348747 </i>
   </energy>
  </scstep>
  <scstep>
   <time name="diag">    1.36    1.36</time>
   <time name="diis">    5.87    5.83</time>
   <time name="orth">    0.03    0.03</time>
   <time name="total">    9.32    9.28</time>
   <energy>
    <i name="e_fr_energy">   -788.82391024 </i>
    <i name="e_wo_entrp">   -788.82391024 </i>
    <i name="e_0_energy">   -788.82391024 </i>
   </energy>
  </scstep>
  <scstep>
   <time name="diag">    1.36    1.36</time>
   <time name="diis">    5.88    5.84</time>
   <time name="orth">    0.03    0.03</time>
   <time name="total">    9.32    9.28</time>
   <energy>
    <i name="e_fr_energy">   -788.82397033 </i>
    <i name="e_wo_entrp">   -788.82397033 </i>
    <i name="e_0_energy">   -788.82397033 </i>
   </energy>
  </scstep>
  <scstep>
   <time name="diag">    1.37    1.37</time>
   <time name="diis">    5.93    5.89</time>
   <time name="orth">    0.03    0.03</time>
   <time name="total">    9.39    9.35</time>
   <energy>
[...]
       <r>    -7.4834    10.4364    38.8016 </r>
       <r>    -7.3984     5.8247    39.4831 </r>
       <r>    -7.3133     2.6364    39.8326 </r>
       <r>    -7.2283     5.4532    39.9956 </r>
       <r>    -7.1433    29.3762    41.6171 </r>
       <r>    -7.0583     2.6836    43.9875 </r>
       <r>    -6.9733    30.3500    44.9615 </r>
       <r>    -6.8883    11.8362    46.9330 </r>
       <r>    -6.8032     5.4533    47.6493 </r>
       <r>    -6.7182     1.6954    47.9347 </r>
       <r>    -6.6332     0.1184    47.9988 </r>
       <r>    -6.5482     0.0051    48.0000 </r>
       <r>    -6.4632    17.1781    48.9175 </r>
       <r>    -6.3781    18.0045    50.4507 </r>
       <r>    -6.2931    17.8327    51.9991 </r>
       <r>    -6.2081    71.2131    54.3278 </r>
       <r>    -6.1231     7.9475    56.1541 </r>
       <r>    -6.0381    20.0831    57.5225 </r>
       <r>    -5.9530    21.4712    59.3062 </r>
       <r>    -5.8680    64.0720    62.1514 </r>
       <r>    -5.7830    17.0202    65.0707 </r>
       <r>    -5.6980    28.3271    67.0913 </r>
       <r>    -5.6130    21.4323    69.3417 </r>
       <r>    -5.5279    20.2117    70.8260 </r>
       <r>    -5.4429    29.4457    72.9996 </r>
       <r>    -5.3579    29.9156    75.5835 </r>
       <r>    -5.2729    25.5779    77.9266 </r>
       <r>    -5.1879    20.6424    79.3802 </r>
       <r>    -5.1028    17.9980    81.3309 </r>
       <r>    -5.0178     8.8394    81.9301 </r>
       <r>    -4.9328    16.5033    83.1990 </r>
       <r>    -4.8478     0.7395    83.9964 </r>
       <r>    -4.7628    16.3382    85.0197 </r>
       <r>    -4.6778     9.3219    85.8588 </r>
       <r>    -4.5927    39.5037    88.8866 </r>
       <r>    -4.5077    20.9196    90.9791 </r>
       <r>    -4.4227    17.0700    92.5938 </r>
       <r>    -4.3377    13.2560    93.8827 </r>
       <r>    -4.2527     9.4775    94.8488 </r>
       <r>    -4.1676     5.7346    95.4952 </r>
       <r>    -4.0826     2.2901    95.8266 </r>
       <r>    -3.9976     0.8963    95.9575 </r>
       <r>    -3.9126     0.1446    95.9972 </r>
       <r>    -3.8276     0.0004    96.0000 </r>
       <r>    -3.7425     0.4164    96.0121 </r>
       <r>    -3.6575     1.6423    96.0933 </r>
       <r>    -3.5725     5.5592    96.3781 </r>
       <r>    -3.4875    10.5073    97.0589 </r>
       <r>    -3.4025    15.7663    98.1736 </r>
       <r>    -3.3174    21.3362    99.7486 </r>
       <r>    -3.2324    32.4236   102.1330 </r>
       <r>    -3.1474    14.2987   104.1505 </r>
       <r>    -3.0624     7.5556   105.1206 </r>
       <r>    -2.9774     8.2153   105.7364 </r>
       <r>    -2.8923    29.4158   107.8664 </r>
       <r>    -2.8073    23.6931   109.6934 </r>
       <r>    -2.7223    24.1578   111.7425 </r>
       <r>    -2.6373    26.7394   113.8754 </r>
       <r>    -2.5523    25.9457   116.1950 </r>
       <r>    -2.4673    20.6146   118.2535 </r>
       <r>    -2.3822    10.6214   119.3997 </r>
       <r>    -2.2972    48.7719   121.8705 </r>
       <r>    -2.2122    22.5727   124.5735 </r>
       <r>    -2.1272    15.4575   126.1832 </r>
       <r>    -2.0422    34.4686   128.3309 </r>
       <r>    -1.9571    41.3052   131.9363 </r>
       <r>    -1.8721    54.2071   135.1147 </r>
       <r>    -1.7871    42.2882   139.7930 </r>
       <r>    -1.7021    43.4040   143.4374 </r>
       <r>    -1.6171    26.5495   146.9378 </r>
       <r>    -1.5320     5.1794   147.8675 </r>
       <r>    -1.4470    14.2816   148.4772 </r>
       <r>    -1.3620    36.8575   150.8183 </r>
       <r>    -1.2770    38.8432   154.1577 </r>
       <r>    -1.1920   118.6200   157.7684 </r>
       <r>    -1.1069    18.3345   159.6413 </r>
       <r>    -1.0219    17.7225   161.1741 </r>
       <r>    -0.9369    45.3681   163.1043 </r>
       <r>    -0.8519    48.9477   167.2415 </r>
       <r>    -0.7669    42.0640   171.1086 </r>
       <r>    -0.6819    33.9568   174.3717 </r>
       <r>    -0.5968    45.6920   178.6787 </r>
       <r>    -0.5118     7.9349   179.8154 </r>
       <r>    -0.4268     6.5448   180.3533 </r>
       <r>    -0.3418    12.3702   181.1685 </r>
       <r>    -0.2568    15.6256   182.3699 </r>
       <r>    -0.1717    17.8208   183.7917 </r>
       <r>    -0.0867    19.3906   185.3799 </r>
       <r>    -0.0017    20.0575   187.0633 </r>
       <r>     0.0833    20.0076   188.9878 </r>
       <r>     0.1683    12.4302   189.8608 </r>
       <r>     0.2534    20.8300   191.1346 </r>
       <r>     0.3384    28.2302   193.6424 </r>
       <r>     0.4234    40.5092   196.1737 </r>
       <r>     0.5084    73.5819   201.8661 </r>
       <r>     0.5934    70.1801   208.6520 </r>
       <r>     0.6785    48.6798   212.0415 </r>
       <r>     0.7635    29.3896   214.7728 </r>
       <r>     0.8485    30.1777   217.1973 </r>
       <r>     0.9335    28.0180   219.7120 </r>
       <r>     1.0185    28.8882   221.9629 </r>
       <r>     1.1036    25.6795   225.2680 </r>
       <r>     1.1886    49.5984   228.9031 </r>
       <r>     1.2736    45.4708   234.8907 </r>
       <r>     1.3586    40.7455   236.5920 </r>
       <r>     1.4436    95.2049   244.1143 </r>
       <r>     1.5286    40.5015   250.4477 </r>
       <r>     1.6137    24.6309   252.8502 </r>
       <r>     1.6987    21.3004   254.7748 </r>
       <r>     1.7837    18.7075   256.4782 </r>
       <r>     1.8687    15.7319   257.9453 </r>
       <r>     1.9537    11.8914   259.1273 </r>
       <r>     2.0388     5.4852   259.8488 </r>
       <r>     2.1238    33.3211   261.0014 </r>
       <r>     2.2088   107.3331   268.2087 </r>
       <r>     2.2938   109.2349   277.7843 </r>
       <r>     2.3788    83.1814   285.3842 </r>
       <r>     2.4639    59.5555   288.9192 </r>
       <r>     2.5489    40.9423   293.6305 </r>
       <r>     2.6339    50.6663   296.2626 </r>
       <r>     2.7189    18.2075   298.8017 </r>
       <r>     2.8039    60.8518   302.4574 </r>
       <r>     2.8890    64.8067   308.0784 </r>
       <r>     2.9740    72.2529   315.8065 </r>
       <r>     3.0590    52.3845   319.6430 </r>
       <r>     3.1440    40.6483   323.6983 </r>
       <r>     3.2290    24.0100   326.3945 </r>
       <r>     3.3140    38.5992   330.5837 </r>
       <r>     3.3991     5.3717   331.8734 </r>
       <r>     3.4841     3.0365   332.0388 </r>
       <r>     3.5691    24.5150   333.1176 </r>
       <r>     3.6541    61.0099   336.4390 </r>
       <r>     3.7391    16.1958   341.1646 </r>
       <r>     3.8242    30.0716   343.0169 </r>
       <r>     3.9092    30.9730   345.7077 </r>
       <r>     3.9942    18.6727   347.9005 </r>
       <r>     4.0792    13.8890   349.2333 </r>
       <r>     4.1642    33.3483   351.1942 </r>
       <r>     4.2493     2.0963   352.3183 </r>
       <r>     4.3343     2.9987   352.5332 </r>
       <r>     4.4193     4.1393   352.8350 </r>
       <r>     4.5043     5.5181   353.2438 </r>
       <r>     4.5893     8.5310   353.7839 </r>
       <r>     4.6744    14.7070   354.9932 </r>
       <r>     4.7594     5.5973   355.8895 </r>
       <r>     4.8444     0.0000   356.0000 </r>
       <r>     4.9294     0.0000   356.0000 </r>
       <r>     5.0144     0.0000   356.0000 </r>
       <r>     5.0995     7.7252   356.0841 </r>
       <r>     5.1845    62.6509   359.4883 </r>
       <r>     5.2695    32.7781   362.4327 </r>
       <r>     5.3545    35.2315   365.4693 </r>
       <r>     5.4395    11.7621   368.0000 </r>
       <r>     5.5245     0.0000   368.0000 </r>
       <r>     5.6096     0.4400   368.0078 </r>
       <r>     5.6946     3.2642   368.1384 </r>
       <r>     5.7796    10.3623   368.7435 </r>
       <r>     5.8646    13.8021   369.7966 </r>
       <r>     5.9496    13.5817   370.9867 </r>
       <r>     6.0347     9.7011   372.0023 </r>
       <r>     6.1197    26.9077   373.9656 </r>
       <r>     6.2047    20.4858   375.5008 </r>
       <r>     6.2897    21.0862   377.3043 </r>
       <r>     6.3747    22.6772   378.9371 </r>
       <r>     6.4598    12.9084   382.0347 </r>
       <r>     6.5448     7.7922   382.8944 </r>
       <r>     6.6298     4.9591   383.4290 </r>
       <r>     6.7148     2.8182   383.7554 </r>
       <r>     6.7998     1.2784   383.9253 </r>
       <r>     6.8849     0.3394   383.9898 </r>
       <r>     6.9699     0.0014   384.0000 </r>
       <r>     7.0549     0.0000   384.0000 </r>
       <r>     7.1399     0.0000   384.0000 </r>
       <r>     7.2249     0.0000   384.0000 </r>
       <r>     7.3100     0.0000   384.0000 </r>
       <r>     7.3950     0.0000   384.0000 </r>
       <r>     7.4800     0.0000   384.0000 </r>
       <r>     7.5650     0.0000   384.0000 </r>
       <r>     7.6500     0.0000   384.0000 </r>
       <r>     7.7350     0.0000   384.0000 </r>
       <r>     7.8201     0.0000   384.0000 </r>
       <r>     7.9051     0.0000   384.0000 </r>
       <r>     7.9901     0.0000   384.0000 </r>
       <r>     8.0751     0.0352   384.0004 </r>
       <r>     8.1601     0.4738   384.0184 </r>
       <r>     8.2452     1.4203   384.0953 </r>
       <r>     8.3302     2.8748   384.2743 </r>
       <r>     8.4152     4.8372   384.5986 </r>
       <r>     8.5002     7.6202   385.1121 </r>
       <r>     8.5852    13.4716   386.0794 </r>
       <r>     8.6703     8.8938   387.1047 </r>
       <r>     8.7553     6.5609   387.7061 </r>
       <r>     8.8403    21.5544   388.8388 </r>
       <r>     8.9253    27.3081   391.0157 </r>
       <r>     9.0103    22.8847   393.1833 </r>
       <r>     9.0954    17.6929   394.8666 </r>
       <r>     9.1804    20.9010   396.4900 </r>
       <r>     9.2654    18.1777   398.1977 </r>
       <r>     9.3504    11.0411   399.4235 </r>
       <r>     9.4354    11.3827   400.3354 </r>
       <r>     9.5204    17.5491   401.5240 </r>
       <r>     9.6055   119.2540   403.6885 </r>
       <r>     9.6905    22.1693   408.7507 </r>
       <r>     9.7755    12.6707   409.7660 </r>
       <r>     9.8605    15.5407   410.9689 </r>
       <r>     9.9455    16.7026   412.3606 </r>
       <r>    10.0306    14.8874   413.7246 </r>
       <r>    10.1156    31.8165   415.3938 </r>
       <r>    10.2006    32.1518   417.0212 </r>
       <r>    10.2856    60.2982   422.3574 </r>
       <r>    10.3706    22.3026   425.0073 </r>
       <r>    10.4557    38.2698   428.1359 </r>
       <r>    10.5407    27.9722   430.0046 </r>
       <r>    10.6257     6.3963   432.5989 </r>
       <r>    10.7107     8.5825   433.2171 </r>
       <r>    10.7957    11.7062   434.0766 </r>
       <r>    10.8808    13.5137   435.1517 </r>
       <r>    10.9658    14.9537   436.3643 </r>
       <r>    11.0508    16.0383   437.6843 </r>
       <r>    11.1358    16.7675   439.0814 </r>
       <r>    11.2208    17.1414   440.5253 </r>
       <r>    11.3059    17.1599   441.9860 </r>
       <r>    11.3909    16.8229   443.4331 </r>
       <r>    11.4759    13.6956   444.8033 </r>
       <r>    11.5609    17.1640   446.8173 </r>
       <r>    11.6459    47.9766   449.9942 </r>
       <r>    11.7309    22.1276   451.9886 </r>
       <r>    11.8160    20.3938   453.7672 </r>
       <r>    11.9010    21.4075   455.5346 </r>
       <r>    11.9860    21.5301   457.3787 </r>
       <r>    12.0710    11.1510   458.6005 </r>
       <r>    12.1560     9.5737   459.4959 </r>
       <r>    12.2411    42.2253   461.1560 </r>
       <r>    12.3261    12.9248   463.9876 </r>
       <r>    12.4111    17.1396   465.7835 </r>
       <r>    12.4961     0.0000   466.0000 </r>
       <r>    12.5811     0.0000   466.0000 </r>
       <r>    12.6662     0.0000   466.0000 </r>
       <r>    12.7512     0.0000   466.0000 </r>
       <r>    12.8362     0.0000   466.0000 </r>
       <r>    12.9212     0.0000   466.0000 </r>
       <r>    13.0062     0.0000   466.0000 </r>
       <r>    13.0913     0.0000   466.0000 </r>
       <r>    13.1763     0.0000   466.0000 </r>
       <r>    13.2613     0.0000   466.0000 </r>
       <r>    13.3463     0.0000   466.0000 </r>
       <r>    13.4313     0.0000   466.0000 </r>
       <r>    13.5163     0.0000   466.0000 </r>
       <r>    13.6014     0.0000   466.0000 </r>
      </set>
     </set>
    </array>
   </total>
  </dos>
 </calculation>
 <structure name="finalpos" >
  <crystal>
   <varray name="basis" >
    <v>       9.37343681       0.47420978       4.25353936 </v>
    <v>       2.78627858       9.31749657       3.45652686 </v>
    <v>       0.10165703       1.01795650      10.25004876 </v>
   </varray>
   <i name="volume">    856.88572385 </i>
   <varray name="rec_basis" >
    <v>       0.10734944      -0.03291934       0.00220464 </v>
    <v>      -0.00061940       0.11162023      -0.01107913 </v>
    <v>      -0.04433872      -0.02397985       0.10038175 </v>
   </varray>
  </crystal>
  <varray name="positions" >
   <v>       0.16025210       0.40033629       0.40035798 </v>
   <v>       0.16025210       0.40033629       0.90035798 </v>
   <v>       0.16025210       0.90033629       0.40035798 </v>
   <v>       0.16025210       0.90033629       0.90035798 </v>
   <v>       0.66025210       0.40033629       0.40035798 </v>
   <v>       0.66025210       0.40033629       0.90035798 </v>
   <v>       0.66025210       0.90033629       0.40035798 </v>
   <v>       0.66025210       0.90033629       0.90035798 </v>
   <v>       0.40033046       0.40041088       0.16027209 </v>
   <v>       0.40033046       0.40041088       0.66027209 </v>
   <v>       0.40033046       0.90041088       0.16027209 </v>
   <v>       0.40033046       0.90041088       0.66027209 </v>
   <v>       0.90033046       0.40041088       0.16027209 </v>
   <v>       0.90033046       0.40041088       0.66027209 </v>
   <v>       0.90033046       0.90041088       0.16027209 </v>
   <v>       0.90033046       0.90041088       0.66027209 </v>
   <v>       0.40019480       0.15991299       0.40028398 </v>
   <v>       0.40019480       0.15991299       0.90028398 </v>
   <v>       0.40019480       0.65991299       0.40028398 </v>
   <v>       0.40019480       0.65991299       0.90028398 </v>
   <v>       0.90019480       0.15991299       0.40028398 </v>
   <v>       0.90019480       0.15991299       0.90028398 </v>
   <v>       0.90019480       0.65991299       0.40028398 </v>
   <v>       0.90019480       0.65991299       0.90028398 </v>
   <v>       0.33974790       0.09966371       0.09964202 </v>
   <v>       0.33974790       0.09966371       0.59964202 </v>
   <v>       0.33974790       0.59966371       0.09964202 </v>
   <v>       0.33974790       0.59966371       0.59964202 </v>
   <v>       0.83974790       0.09966371       0.09964202 </v>
   <v>       0.83974790       0.09966371       0.59964202 </v>
   <v>       0.83974790       0.59966371       0.09964202 </v>
   <v>       0.83974790       0.59966371       0.59964202 </v>
   <v>       0.09966954       0.09958912       0.33972791 </v>
   <v>       0.09966954       0.09958912       0.83972791 </v>
   <v>       0.09966954       0.59958912       0.33972791 </v>
   <v>       0.09966954       0.59958912       0.83972791 </v>
   <v>       0.59966954       0.09958912       0.33972791 </v>
   <v>       0.59966954       0.09958912       0.83972791 </v>
   <v>       0.59966954       0.59958912       0.33972791 </v>
   <v>       0.59966954       0.59958912       0.83972791 </v>
   <v>       0.09980520       0.34008701       0.09971602 </v>
   <v>       0.09980520       0.34008701       0.59971602 </v>
   <v>       0.09980520       0.84008701       0.09971602 </v>
   <v>       0.09980520       0.84008701       0.59971602 </v>
   <v>       0.59980520       0.34008701       0.09971602 </v>
   <v>       0.59980520       0.34008701       0.59971602 </v>
   <v>       0.59980520       0.84008701       0.09971602 </v>
   <v>       0.59980520       0.84008701       0.59971602 </v>
   <v>       0.33217486       0.00012656       0.00027239 </v>
   <v>       0.33217486       0.00012656       0.50027239 </v>
   <v>       0.33217486       0.50012656       0.00027239 </v>
   <v>       0.33217486       0.50012656       0.50027239 </v>
   <v>       0.83217486       0.00012656       0.00027239 </v>
   <v>       0.83217486       0.00012656       0.50027239 </v>
   <v>       0.83217486       0.50012656       0.00027239 </v>
   <v>       0.83217486       0.50012656       0.50027239 </v>
   <v>       0.00033866       0.00009277       0.33221826 </v>
   <v>       0.00033866       0.00009277       0.83221826 </v>
   <v>       0.00033866       0.50009277       0.33221826 </v>
   <v>       0.00033866       0.50009277       0.83221826 </v>
   <v>       0.50033866       0.00009277       0.33221826 </v>
   <v>       0.50033866       0.00009277       0.83221826 </v>
   <v>       0.50033866       0.50009277       0.33221826 </v>
   <v>       0.50033866       0.50009277       0.83221826 </v>
   <v>       0.00040996       0.33189014       0.00030994 </v>
   <v>       0.00040996       0.33189014       0.50030994 </v>
   <v>       0.00040996       0.83189014       0.00030994 </v>
   <v>       0.00040996       0.83189014       0.50030994 </v>
   <v>       0.50040996       0.33189014       0.00030994 </v>
   <v>       0.50040996       0.33189014       0.50030994 </v>
   <v>       0.50040996       0.83189014       0.00030994 </v>
   <v>       0.50040996       0.83189014       0.50030994 </v>
   <v>       0.16782514      -0.00012656      -0.00027239 </v>
   <v>       0.16782514      -0.00012656       0.49972761 </v>
   <v>       0.16782514       0.49987344      -0.00027239 </v>
   <v>       0.16782514       0.49987344       0.49972761 </v>
   <v>       0.66782514      -0.00012656      -0.00027239 </v>
   <v>       0.66782514      -0.00012656       0.49972761 </v>
   <v>       0.66782514       0.49987344      -0.00027239 </v>
   <v>       0.66782514       0.49987344       0.49972761 </v>
   <v>      -0.00033866      -0.00009277       0.16778174 </v>
   <v>      -0.00033866      -0.00009277       0.66778174 </v>
   <v>      -0.00033866       0.49990723       0.16778174 </v>
   <v>      -0.00033866       0.49990723       0.66778174 </v>
   <v>       0.49966134      -0.00009277       0.16778174 </v>
   <v>       0.49966134      -0.00009277       0.66778174 </v>
   <v>       0.49966134       0.49990723       0.16778174 </v>
   <v>       0.49966134       0.49990723       0.66778174 </v>
   <v>      -0.00040996       0.16810986       0.99969006 </v>
   <v>      -0.00040996       0.16810986       0.49969006 </v>
   <v>      -0.00040996       0.66810986       0.99969006 </v>
   <v>      -0.00040996       0.66810986       0.49969006 </v>
   <v>       0.49959004       0.16810986       0.99969006 </v>
   <v>       0.49959004       0.16810986       0.49969006 </v>
   <v>       0.49959004       0.66810986       0.99969006 </v>
   <v>       0.49959004       0.66810986       0.49969006 </v>
   <v>       0.31516006       0.31496401       0.31506260 </v>
   <v>       0.31516006       0.31496401       0.81506260 </v>
   <v>       0.31516006       0.81496401       0.31506260 </v>
   <v>       0.31516006       0.81496401       0.81506260 </v>
   <v>       0.81516006       0.31496401       0.31506260 </v>
   <v>       0.81516006       0.31496401       0.81506260 </v>
   <v>       0.81516006       0.81496401       0.31506260 </v>
   <v>       0.81516006       0.81496401       0.81506260 </v>
   <v>       0.18483994       0.18503599       0.18493740 </v>
   <v>       0.18483994       0.18503599       0.68493740 </v>
   <v>       0.18483994       0.68503599       0.18493740 </v>
   <v>       0.18483994       0.68503599       0.68493740 </v>
   <v>       0.68483994       0.18503599       0.18493740 </v>
   <v>       0.68483994       0.18503599       0.68493740 </v>
   <v>       0.68483994       0.68503599       0.18493740 </v>
   <v>       0.68483994       0.68503599       0.68493740 </v>
  </varray>
 </structure>
</modeling>
