unknown system                          
            1
     9.424964    0.847826    4.236629
     2.795979    9.776241    4.236629
     0.097743    1.937725   10.192725
   B    C 
    96    16
unknown system                          
            1
     9.424964    0.847826    4.236629
     2.795979    9.776241    4.236629
     0.097743    1.937725   10.192725
   B    C 
    96    16
Direct configuration=     1
   0.16039500  0.40051500  0.40051500
   0.16039500  0.40051500  0.90051500
   0.16039500  0.90051500  0.40051500
   0.16039500  0.90051500  0.90051500
   0.66039500  0.40051500  0.40051500
   0.66039500  0.40051500  0.90051500
   0.66039500  0.90051500  0.40051500
   0.66039500  0.90051500  0.90051500
   0.40051500  0.40051500  0.16039500
   0.40051500  0.40051500  0.66039500
   0.40051500  0.90051500  0.16039500
   0.40051500  0.90051500  0.66039500
   0.90051500  0.40051500  0.16039500
   0.90051500  0.40051500  0.66039500
   0.90051500  0.90051500  0.16039500
   0.90051500  0.90051500  0.66039500
   0.40051500  0.16039500  0.40051500
   0.40051500  0.16039500  0.90051500
   0.40051500  0.66039500  0.40051500
   0.40051500  0.66039500  0.90051500
   0.90051500  0.16039500  0.40051500
   0.90051500  0.16039500  0.90051500
   0.90051500  0.66039500  0.40051500
   0.90051500  0.66039500  0.90051500
   0.33960500  0.09948500  0.09948500
   0.33960500  0.09948500  0.59948500
   0.33960500  0.59948500  0.09948500
   0.33960500  0.59948500  0.59948500
   0.83960500  0.09948500  0.09948500
   0.83960500  0.09948500  0.59948500
   0.83960500  0.59948500  0.09948500
   0.83960500  0.59948500  0.59948500
   0.09948500  0.09948500  0.33960500
   0.09948500  0.09948500  0.83960500
   0.09948500  0.59948500  0.33960500
   0.09948500  0.59948500  0.83960500
   0.59948500  0.09948500  0.33960500
   0.59948500  0.09948500  0.83960500
   0.59948500  0.59948500  0.33960500
   0.59948500  0.59948500  0.83960500
   0.09948500  0.33960500  0.09948500
   0.09948500  0.33960500  0.59948500
   0.09948500  0.83960500  0.09948500
   0.09948500  0.83960500  0.59948500
   0.59948500  0.33960500  0.09948500
   0.59948500  0.33960500  0.59948500
   0.59948500  0.83960500  0.09948500
   0.59948500  0.83960500  0.59948500
   0.33229300  0.00011500  0.00011500
   0.33229300  0.00011500  0.50011500
   0.33229300  0.50011500  0.00011500
   0.33229300  0.50011500  0.50011500
   0.83229300  0.00011500  0.00011500
   0.83229300  0.00011500  0.50011500
   0.83229300  0.50011500  0.00011500
   0.83229300  0.50011500  0.50011500
   0.00011500  0.00011500  0.33229300
   0.00011500  0.00011500  0.83229300
   0.00011500  0.50011500  0.33229300
   0.00011500  0.50011500  0.83229300
   0.50011500  0.00011500  0.33229300
   0.50011500  0.00011500  0.83229300
   0.50011500  0.50011500  0.33229300
   0.50011500  0.50011500  0.83229300
   0.00011500  0.33229300  0.00011500
   0.00011500  0.33229300  0.50011500
   0.00011500  0.83229300  0.00011500
   0.00011500  0.83229300  0.50011500
   0.50011500  0.33229300  0.00011500
   0.50011500  0.33229300  0.50011500
   0.50011500  0.83229300  0.00011500
   0.50011500  0.83229300  0.50011500
   0.16770700  0.99988500  0.99988500
   0.16770700  0.99988500  0.49988500
   0.16770700  0.49988500  0.99988500
   0.16770700  0.49988500  0.49988500
   0.66770700  0.99988500  0.99988500
   0.66770700  0.99988500  0.49988500
   0.66770700  0.49988500  0.99988500
   0.66770700  0.49988500  0.49988500
   0.99988500  0.99988500  0.16770700
   0.99988500  0.99988500  0.66770700
   0.99988500  0.49988500  0.16770700
   0.99988500  0.49988500  0.66770700
   0.49988500  0.99988500  0.16770700
   0.49988500  0.99988500  0.66770700
   0.49988500  0.49988500  0.16770700
   0.49988500  0.49988500  0.66770700
   0.99988500  0.16770700  0.99988500
   0.99988500  0.16770700  0.49988500
   0.99988500  0.66770700  0.99988500
   0.99988500  0.66770700  0.49988500
   0.49988500  0.16770700  0.99988500
   0.49988500  0.16770700  0.49988500
   0.49988500  0.66770700  0.99988500
   0.49988500  0.66770700  0.49988500
   0.31539700  0.31539700  0.31539700
   0.31539700  0.31539700  0.81539700
   0.31539700  0.81539700  0.31539700
   0.31539700  0.81539700  0.81539700
   0.81539700  0.31539700  0.31539700
   0.81539700  0.31539700  0.81539700
   0.81539700  0.81539700  0.31539700
   0.81539700  0.81539700  0.81539700
   0.18460300  0.18460300  0.18460300
   0.18460300  0.18460300  0.68460300
   0.18460300  0.68460300  0.18460300
   0.18460300  0.68460300  0.68460300
   0.68460300  0.18460300  0.18460300
   0.68460300  0.18460300  0.68460300
   0.68460300  0.68460300  0.18460300
   0.68460300  0.68460300  0.68460300
unknown system                          
            1
     9.283521    0.545563    4.183235
     2.820487    9.418994    3.409372
     0.044914    1.004939   10.226947
   B    C 
    96    16
Direct configuration=     2
   0.16495337  0.40246204  0.39843608
   0.16495337  0.40246204  0.89843608
   0.16495337  0.90246204  0.39843608
   0.16495337  0.90246204  0.89843608
   0.66495337  0.40246204  0.39843608
   0.66495337  0.40246204  0.89843608
   0.66495337  0.90246204  0.39843608
   0.66495337  0.90246204  0.89843608
   0.40670232  0.40245156  0.16014629
   0.40670232  0.40245156  0.66014629
   0.40670232  0.90245156  0.16014629
   0.40670232  0.90245156  0.66014629
   0.90670232  0.40245156  0.16014629
   0.90670232  0.40245156  0.66014629
   0.90670232  0.90245156  0.16014629
   0.90670232  0.90245156  0.66014629
   0.40353825  0.15250595  0.39858061
   0.40353825  0.15250595  0.89858061
   0.40353825  0.65250595  0.39858061
   0.40353825  0.65250595  0.89858061
   0.90353825  0.15250595  0.39858061
   0.90353825  0.15250595  0.89858061
   0.90353825  0.65250595  0.39858061
   0.90353825  0.65250595  0.89858061
   0.33504663  0.09753796  0.10156392
   0.33504663  0.09753796  0.60156392
   0.33504663  0.59753796  0.10156392
   0.33504663  0.59753796  0.60156392
   0.83504663  0.09753796  0.10156392
   0.83504663  0.09753796  0.60156392
   0.83504663  0.59753796  0.10156392
   0.83504663  0.59753796  0.60156392
   0.09329768  0.09754844  0.33985371
   0.09329768  0.09754844  0.83985371
   0.09329768  0.59754844  0.33985371
   0.09329768  0.59754844  0.83985371
   0.59329768  0.09754844  0.33985371
   0.59329768  0.09754844  0.83985371
   0.59329768  0.59754844  0.33985371
   0.59329768  0.59754844  0.83985371
   0.09646175  0.34749405  0.10141939
   0.09646175  0.34749405  0.60141939
   0.09646175  0.84749405  0.10141939
   0.09646175  0.84749405  0.60141939
   0.59646175  0.34749405  0.10141939
   0.59646175  0.34749405  0.60141939
   0.59646175  0.84749405  0.10141939
   0.59646175  0.84749405  0.60141939
   0.33005946  0.00343332 -0.00353983
   0.33005946  0.00343332  0.49646017
   0.33005946  0.50343332 -0.00353983
   0.33005946  0.50343332  0.49646017
   0.83005946  0.00343332 -0.00353983
   0.83005946  0.00343332  0.49646017
   0.83005946  0.50343332 -0.00353983
   0.83005946  0.50343332  0.49646017
  -0.00163941  0.00644204  0.32786813
  -0.00163941  0.00644204  0.82786813
  -0.00163941  0.50644204  0.32786813
  -0.00163941  0.50644204  0.82786813
   0.49836059  0.00644204  0.32786813
   0.49836059  0.00644204  0.82786813
   0.49836059  0.50644204  0.32786813
   0.49836059  0.50644204  0.82786813
  -0.00014655  0.32809794  0.00471641
  -0.00014655  0.32809794  0.50471641
  -0.00014655  0.82809794  0.00471641
  -0.00014655  0.82809794  0.50471641
   0.49985345  0.32809794  0.00471641
   0.49985345  0.32809794  0.50471641
   0.49985345  0.82809794  0.00471641
   0.49985345  0.82809794  0.50471641
   0.16994054  0.99656668  0.00353983
   0.16994054  0.99656668  0.50353983
   0.16994054  0.49656668  0.00353983
   0.16994054  0.49656668  0.50353983
   0.66994054  0.99656668  0.00353983
   0.66994054  0.99656668  0.50353983
   0.66994054  0.49656668  0.00353983
   0.66994054  0.49656668  0.50353983
   0.00163941  0.99355796  0.17213187
   0.00163941  0.99355796  0.67213187
   0.00163941  0.49355796  0.17213187
   0.00163941  0.49355796  0.67213187
   0.50163941  0.99355796  0.17213187
   0.50163941  0.99355796  0.67213187
   0.50163941  0.49355796  0.17213187
   0.50163941  0.49355796  0.67213187
   0.00014655  0.17190206  0.99528359
   0.00014655  0.17190206  0.49528359
   0.00014655  0.67190206  0.99528359
   0.00014655  0.67190206  0.49528359
   0.50014655  0.17190206  0.99528359
   0.50014655  0.17190206  0.49528359
   0.50014655  0.67190206  0.99528359
   0.50014655  0.67190206  0.49528359
   0.30228128  0.32462369  0.31980440
   0.30228128  0.32462369  0.81980440
   0.30228128  0.82462369  0.31980440
   0.30228128  0.82462369  0.81980440
   0.80228128  0.32462369  0.31980440
   0.80228128  0.32462369  0.81980440
   0.80228128  0.82462369  0.31980440
   0.80228128  0.82462369  0.81980440
   0.19771872  0.17537631  0.18019560
   0.19771872  0.17537631  0.68019560
   0.19771872  0.67537631  0.18019560
   0.19771872  0.67537631  0.68019560
   0.69771872  0.17537631  0.18019560
   0.69771872  0.17537631  0.68019560
   0.69771872  0.67537631  0.18019560
   0.69771872  0.67537631  0.68019560
unknown system                          
            1
     9.339655    0.679186    4.203944
     2.807624    9.570710    3.773724
     0.068304    1.417781   10.204531
   B    C 
    96    16
Direct configuration=     3
   0.16291041  0.40160262  0.39928229
   0.16291041  0.40160262  0.89928229
   0.16291041  0.90160262  0.39928229
   0.16291041  0.90160262  0.89928229
   0.66291041  0.40160262  0.39928229
   0.66291041  0.40160262  0.89928229
   0.66291041  0.90160262  0.39928229
   0.66291041  0.90160262  0.89928229
   0.40395464  0.40148954  0.16020999
   0.40395464  0.40148954  0.66020999
   0.40395464  0.90148954  0.16020999
   0.40395464  0.90148954  0.66020999
   0.90395464  0.40148954  0.16020999
   0.90395464  0.40148954  0.66020999
   0.90395464  0.90148954  0.16020999
   0.90395464  0.90148954  0.66020999
   0.40212702  0.15615218  0.39968916
   0.40212702  0.15615218  0.89968916
   0.40212702  0.65615218  0.39968916
   0.40212702  0.65615218  0.89968916
   0.90212702  0.15615218  0.39968916
   0.90212702  0.15615218  0.89968916
   0.90212702  0.65615218  0.39968916
   0.90212702  0.65615218  0.89968916
   0.33708959  0.09839738  0.10071771
   0.33708959  0.09839738  0.60071771
   0.33708959  0.59839738  0.10071771
   0.33708959  0.59839738  0.60071771
   0.83708959  0.09839738  0.10071771
   0.83708959  0.09839738  0.60071771
   0.83708959  0.59839738  0.10071771
   0.83708959  0.59839738  0.60071771
   0.09604536  0.09851046  0.33979001
   0.09604536  0.09851046  0.83979001
   0.09604536  0.59851046  0.33979001
   0.09604536  0.59851046  0.83979001
   0.59604536  0.09851046  0.33979001
   0.59604536  0.09851046  0.83979001
   0.59604536  0.59851046  0.33979001
   0.59604536  0.59851046  0.83979001
   0.09787298  0.34384782  0.10031084
   0.09787298  0.34384782  0.60031084
   0.09787298  0.84384782  0.10031084
   0.09787298  0.84384782  0.60031084
   0.59787298  0.34384782  0.10031084
   0.59787298  0.34384782  0.60031084
   0.59787298  0.84384782  0.10031084
   0.59787298  0.84384782  0.60031084
   0.33103074  0.00211826 -0.00208427
   0.33103074  0.00211826  0.49791573
   0.33103074  0.50211826 -0.00208427
   0.33103074  0.50211826  0.49791573
   0.83103074  0.00211826 -0.00208427
   0.83103074  0.00211826  0.49791573
   0.83103074  0.50211826 -0.00208427
   0.83103074  0.50211826  0.49791573
  -0.00087385  0.00378188  0.32955619
  -0.00087385  0.00378188  0.82955619
  -0.00087385  0.50378188  0.32955619
  -0.00087385  0.50378188  0.82955619
   0.49912615  0.00378188  0.32955619
   0.49912615  0.00378188  0.82955619
   0.49912615  0.50378188  0.32955619
   0.49912615  0.50378188  0.82955619
  -0.00000073  0.32980591  0.00287376
  -0.00000073  0.32980591  0.50287376
  -0.00000073  0.82980591  0.00287376
  -0.00000073  0.82980591  0.50287376
   0.49999927  0.32980591  0.00287376
   0.49999927  0.32980591  0.50287376
   0.49999927  0.82980591  0.00287376
   0.49999927  0.82980591  0.50287376
   0.16896926  0.99788174  0.00208427
   0.16896926  0.99788174  0.50208427
   0.16896926  0.49788174  0.00208427
   0.16896926  0.49788174  0.50208427
   0.66896926  0.99788174  0.00208427
   0.66896926  0.99788174  0.50208427
   0.66896926  0.49788174  0.00208427
   0.66896926  0.49788174  0.50208427
   0.00087385  0.99621812  0.17044381
   0.00087385  0.99621812  0.67044381
   0.00087385  0.49621812  0.17044381
   0.00087385  0.49621812  0.67044381
   0.50087385  0.99621812  0.17044381
   0.50087385  0.99621812  0.67044381
   0.50087385  0.49621812  0.17044381
   0.50087385  0.49621812  0.67044381
   0.00000073  0.17019409  0.99712624
   0.00000073  0.17019409  0.49712624
   0.00000073  0.67019409  0.99712624
   0.00000073  0.67019409  0.49712624
   0.50000073  0.17019409  0.99712624
   0.50000073  0.17019409  0.49712624
   0.50000073  0.67019409  0.99712624
   0.50000073  0.67019409  0.49712624
   0.30822232  0.32039935  0.31755044
   0.30822232  0.32039935  0.81755044
   0.30822232  0.82039935  0.31755044
   0.30822232  0.82039935  0.81755044
   0.80822232  0.32039935  0.31755044
   0.80822232  0.32039935  0.81755044
   0.80822232  0.82039935  0.31755044
   0.80822232  0.82039935  0.81755044
   0.19177768  0.17960065  0.18244956
   0.19177768  0.17960065  0.68244956
   0.19177768  0.67960065  0.18244956
   0.19177768  0.67960065  0.68244956
   0.69177768  0.17960065  0.18244956
   0.69177768  0.17960065  0.68244956
   0.69177768  0.67960065  0.18244956
   0.69177768  0.67960065  0.68244956
unknown system                          
            1
     9.342231    0.481883    4.160811
     2.805763    9.335516    3.329675
     0.028848    0.922431   10.201019
   B    C 
    96    16
Direct configuration=     4
   0.15515910  0.40672493  0.40455444
   0.15515910  0.40672493  0.90455444
   0.15515910  0.90672493  0.40455444
   0.15515910  0.90672493  0.90455444
   0.65515910  0.40672493  0.40455444
   0.65515910  0.40672493  0.90455444
   0.65515910  0.90672493  0.40455444
   0.65515910  0.90672493  0.90455444
   0.40111920  0.40043904  0.16412403
   0.40111920  0.40043904  0.66412403
   0.40111920  0.90043904  0.16412403
   0.40111920  0.90043904  0.66412403
   0.90111920  0.40043904  0.16412403
   0.90111920  0.40043904  0.66412403
   0.90111920  0.90043904  0.16412403
   0.90111920  0.90043904  0.66412403
   0.39694942  0.16168144  0.39515902
   0.39694942  0.16168144  0.89515902
   0.39694942  0.66168144  0.39515902
   0.39694942  0.66168144  0.89515902
   0.89694942  0.16168144  0.39515902
   0.89694942  0.16168144  0.89515902
   0.89694942  0.66168144  0.39515902
   0.89694942  0.66168144  0.89515902
   0.34484090  0.09327507  0.09544556
   0.34484090  0.09327507  0.59544556
   0.34484090  0.59327507  0.09544556
   0.34484090  0.59327507  0.59544556
   0.84484090  0.09327507  0.09544556
   0.84484090  0.09327507  0.59544556
   0.84484090  0.59327507  0.09544556
   0.84484090  0.59327507  0.59544556
   0.09888080  0.09956096  0.33587597
   0.09888080  0.09956096  0.83587597
   0.09888080  0.59956096  0.33587597
   0.09888080  0.59956096  0.83587597
   0.59888080  0.09956096  0.33587597
   0.59888080  0.09956096  0.83587597
   0.59888080  0.59956096  0.33587597
   0.59888080  0.59956096  0.83587597
   0.10305058  0.33831856  0.10484098
   0.10305058  0.33831856  0.60484098
   0.10305058  0.83831856  0.10484098
   0.10305058  0.83831856  0.60484098
   0.60305058  0.33831856  0.10484098
   0.60305058  0.33831856  0.60484098
   0.60305058  0.83831856  0.10484098
   0.60305058  0.83831856  0.60484098
   0.33227004  0.00161470 -0.00151146
   0.33227004  0.00161470  0.49848854
   0.33227004  0.50161470 -0.00151146
   0.33227004  0.50161470  0.49848854
   0.83227004  0.00161470 -0.00151146
   0.83227004  0.00161470  0.49848854
   0.83227004  0.50161470 -0.00151146
   0.83227004  0.50161470  0.49848854
  -0.00174701  0.00422144  0.33147699
  -0.00174701  0.00422144  0.83147699
  -0.00174701  0.50422144  0.33147699
  -0.00174701  0.50422144  0.83147699
   0.49825299  0.00422144  0.33147699
   0.49825299  0.00422144  0.83147699
   0.49825299  0.50422144  0.33147699
   0.49825299  0.50422144  0.83147699
   0.00001769  0.33056552  0.00359442
   0.00001769  0.33056552  0.50359442
   0.00001769  0.83056552  0.00359442
   0.00001769  0.83056552  0.50359442
   0.50001769  0.33056552  0.00359442
   0.50001769  0.33056552  0.50359442
   0.50001769  0.83056552  0.00359442
   0.50001769  0.83056552  0.50359442
   0.16772996  0.99838530  0.00151146
   0.16772996  0.99838530  0.50151146
   0.16772996  0.49838530  0.00151146
   0.16772996  0.49838530  0.50151146
   0.66772996  0.99838530  0.00151146
   0.66772996  0.99838530  0.50151146
   0.66772996  0.49838530  0.00151146
   0.66772996  0.49838530  0.50151146
   0.00174701  0.99577856  0.16852301
   0.00174701  0.99577856  0.66852301
   0.00174701  0.49577856  0.16852301
   0.00174701  0.49577856  0.66852301
   0.50174701  0.99577856  0.16852301
   0.50174701  0.99577856  0.66852301
   0.50174701  0.49577856  0.16852301
   0.50174701  0.49577856  0.66852301
  -0.00001769  0.16943448  0.99640558
  -0.00001769  0.16943448  0.49640558
  -0.00001769  0.66943448  0.99640558
  -0.00001769  0.66943448  0.49640558
   0.49998231  0.16943448  0.99640558
   0.49998231  0.16943448  0.49640558
   0.49998231  0.66943448  0.99640558
   0.49998231  0.66943448  0.49640558
   0.31722800  0.31524603  0.31485787
   0.31722800  0.31524603  0.81485787
   0.31722800  0.81524603  0.31485787
   0.31722800  0.81524603  0.81485787
   0.81722800  0.31524603  0.31485787
   0.81722800  0.31524603  0.81485787
   0.81722800  0.81524603  0.31485787
   0.81722800  0.81524603  0.81485787
   0.18277200  0.18475397  0.18514213
   0.18277200  0.18475397  0.68514213
   0.18277200  0.68475397  0.18514213
   0.18277200  0.68475397  0.68514213
   0.68277200  0.18475397  0.18514213
   0.68277200  0.18475397  0.68514213
   0.68277200  0.68475397  0.18514213
   0.68277200  0.68475397  0.68514213
unknown system                          
            1
     9.339212    0.574283    4.180225
     2.806091    9.443962    3.537195
     0.047339    1.154466   10.200687
   B    C 
    96    16
Direct configuration=     5
   0.15881325  0.40421448  0.40202061
   0.15881325  0.40421448  0.90202061
   0.15881325  0.90421448  0.40202061
   0.15881325  0.90421448  0.90202061
   0.65881325  0.40421448  0.40202061
   0.65881325  0.40421448  0.90202061
   0.65881325  0.90421448  0.40202061
   0.65881325  0.90421448  0.90202061
   0.40245847  0.40086983  0.16233187
   0.40245847  0.40086983  0.66233187
   0.40245847  0.90086983  0.16233187
   0.40245847  0.90086983  0.66233187
   0.90245847  0.40086983  0.16233187
   0.90245847  0.40086983  0.66233187
   0.90245847  0.90086983  0.16233187
   0.90245847  0.90086983  0.66233187
   0.39935043  0.15920260  0.39715411
   0.39935043  0.15920260  0.89715411
   0.39935043  0.65920260  0.39715411
   0.39935043  0.65920260  0.89715411
   0.89935043  0.15920260  0.39715411
   0.89935043  0.15920260  0.89715411
   0.89935043  0.65920260  0.39715411
   0.89935043  0.65920260  0.89715411
   0.34118675  0.09578552  0.09797939
   0.34118675  0.09578552  0.59797939
   0.34118675  0.59578552  0.09797939
   0.34118675  0.59578552  0.59797939
   0.84118675  0.09578552  0.09797939
   0.84118675  0.09578552  0.59797939
   0.84118675  0.59578552  0.09797939
   0.84118675  0.59578552  0.59797939
   0.09754153  0.09913017  0.33766813
   0.09754153  0.09913017  0.83766813
   0.09754153  0.59913017  0.33766813
   0.09754153  0.59913017  0.83766813
   0.59754153  0.09913017  0.33766813
   0.59754153  0.09913017  0.83766813
   0.59754153  0.59913017  0.33766813
   0.59754153  0.59913017  0.83766813
   0.10064957  0.34079740  0.10284589
   0.10064957  0.34079740  0.60284589
   0.10064957  0.84079740  0.10284589
   0.10064957  0.84079740  0.60284589
   0.60064957  0.34079740  0.10284589
   0.60064957  0.34079740  0.60284589
   0.60064957  0.84079740  0.10284589
   0.60064957  0.84079740  0.60284589
   0.33169487  0.00182859 -0.00176730
   0.33169487  0.00182859  0.49823270
   0.33169487  0.50182859 -0.00176730
   0.33169487  0.50182859  0.49823270
   0.83169487  0.00182859 -0.00176730
   0.83169487  0.00182859  0.49823270
   0.83169487  0.50182859 -0.00176730
   0.83169487  0.50182859  0.49823270
  -0.00132819  0.00397030  0.33058001
  -0.00132819  0.00397030  0.83058001
  -0.00132819  0.50397030  0.33058001
  -0.00132819  0.50397030  0.83058001
   0.49867181  0.00397030  0.33058001
   0.49867181  0.00397030  0.83058001
   0.49867181  0.50397030  0.33058001
   0.49867181  0.50397030  0.83058001
   0.00001553  0.33018305  0.00324700
   0.00001553  0.33018305  0.50324700
   0.00001553  0.83018305  0.00324700
   0.00001553  0.83018305  0.50324700
   0.50001553  0.33018305  0.00324700
   0.50001553  0.33018305  0.50324700
   0.50001553  0.83018305  0.00324700
   0.50001553  0.83018305  0.50324700
   0.16830513  0.99817141  0.00176730
   0.16830513  0.99817141  0.50176730
   0.16830513  0.49817141  0.00176730
   0.16830513  0.49817141  0.50176730
   0.66830513  0.99817141  0.00176730
   0.66830513  0.99817141  0.50176730
   0.66830513  0.49817141  0.00176730
   0.66830513  0.49817141  0.50176730
   0.00132819  0.99602970  0.16941999
   0.00132819  0.99602970  0.66941999
   0.00132819  0.49602970  0.16941999
   0.00132819  0.49602970  0.66941999
   0.50132819  0.99602970  0.16941999
   0.50132819  0.99602970  0.66941999
   0.50132819  0.49602970  0.16941999
   0.50132819  0.49602970  0.66941999
  -0.00001553  0.16981695  0.99675300
  -0.00001553  0.16981695  0.49675300
  -0.00001553  0.66981695  0.99675300
  -0.00001553  0.66981695  0.49675300
   0.49998447  0.16981695  0.99675300
   0.49998447  0.16981695  0.49675300
   0.49998447  0.66981695  0.99675300
   0.49998447  0.66981695  0.49675300
   0.31300461  0.31769228  0.31619850
   0.31300461  0.31769228  0.81619850
   0.31300461  0.81769228  0.31619850
   0.31300461  0.81769228  0.81619850
   0.81300461  0.31769228  0.31619850
   0.81300461  0.31769228  0.81619850
   0.81300461  0.81769228  0.31619850
   0.81300461  0.81769228  0.81619850
   0.18699539  0.18230772  0.18380150
   0.18699539  0.18230772  0.68380150
   0.18699539  0.68230772  0.18380150
   0.18699539  0.68230772  0.68380150
   0.68699539  0.18230772  0.18380150
   0.68699539  0.18230772  0.68380150
   0.68699539  0.68230772  0.18380150
   0.68699539  0.68230772  0.68380150
unknown system                          
            1
     9.349931    0.555958    4.198467
     2.815736    9.426045    3.499340
     0.070093    1.106421   10.196027
   B    C 
    96    16
Direct configuration=     6
   0.15976420  0.40181934  0.40182523
   0.15976420  0.40181934  0.90182523
   0.15976420  0.90181934  0.40182523
   0.15976420  0.90181934  0.90182523
   0.65976420  0.40181934  0.40182523
   0.65976420  0.40181934  0.90182523
   0.65976420  0.90181934  0.40182523
   0.65976420  0.90181934  0.90182523
   0.40084384  0.40022952  0.16187024
   0.40084384  0.40022952  0.66187024
   0.40084384  0.90022952  0.16187024
   0.40084384  0.90022952  0.66187024
   0.90084384  0.40022952  0.16187024
   0.90084384  0.40022952  0.66187024
   0.90084384  0.90022952  0.16187024
   0.90084384  0.90022952  0.66187024
   0.39799080  0.16072298  0.39787898
   0.39799080  0.16072298  0.89787898
   0.39799080  0.66072298  0.39787898
   0.39799080  0.66072298  0.89787898
   0.89799080  0.16072298  0.39787898
   0.89799080  0.16072298  0.89787898
   0.89799080  0.66072298  0.39787898
   0.89799080  0.66072298  0.89787898
   0.34023580  0.09818066  0.09817477
   0.34023580  0.09818066  0.59817477
   0.34023580  0.59818066  0.09817477
   0.34023580  0.59818066  0.59817477
   0.84023580  0.09818066  0.09817477
   0.84023580  0.09818066  0.59817477
   0.84023580  0.59818066  0.09817477
   0.84023580  0.59818066  0.59817477
   0.09915616  0.09977048  0.33812976
   0.09915616  0.09977048  0.83812976
   0.09915616  0.59977048  0.33812976
   0.09915616  0.59977048  0.83812976
   0.59915616  0.09977048  0.33812976
   0.59915616  0.09977048  0.83812976
   0.59915616  0.59977048  0.33812976
   0.59915616  0.59977048  0.83812976
   0.10200920  0.33927702  0.10212102
   0.10200920  0.33927702  0.60212102
   0.10200920  0.83927702  0.10212102
   0.10200920  0.83927702  0.60212102
   0.60200920  0.33927702  0.10212102
   0.60200920  0.33927702  0.60212102
   0.60200920  0.83927702  0.10212102
   0.60200920  0.83927702  0.60212102
   0.33303433  0.00027857 -0.00053516
   0.33303433  0.00027857  0.49946484
   0.33303433  0.50027857 -0.00053516
   0.33303433  0.50027857  0.49946484
   0.83303433  0.00027857 -0.00053516
   0.83303433  0.00027857  0.49946484
   0.83303433  0.50027857 -0.00053516
   0.83303433  0.50027857  0.49946484
  -0.00114188  0.00153736  0.33195764
  -0.00114188  0.00153736  0.83195764
  -0.00114188  0.50153736  0.33195764
  -0.00114188  0.50153736  0.83195764
   0.49885812  0.00153736  0.33195764
   0.49885812  0.00153736  0.83195764
   0.49885812  0.50153736  0.33195764
   0.49885812  0.50153736  0.83195764
   0.00017349  0.33158428  0.00226408
   0.00017349  0.33158428  0.50226408
   0.00017349  0.83158428  0.00226408
   0.00017349  0.83158428  0.50226408
   0.50017349  0.33158428  0.00226408
   0.50017349  0.33158428  0.50226408
   0.50017349  0.83158428  0.00226408
   0.50017349  0.83158428  0.50226408
   0.16696567  0.99972143  0.00053516
   0.16696567  0.99972143  0.50053516
   0.16696567  0.49972143  0.00053516
   0.16696567  0.49972143  0.50053516
   0.66696567  0.99972143  0.00053516
   0.66696567  0.99972143  0.50053516
   0.66696567  0.49972143  0.00053516
   0.66696567  0.49972143  0.50053516
   0.00114188  0.99846264  0.16804236
   0.00114188  0.99846264  0.66804236
   0.00114188  0.49846264  0.16804236
   0.00114188  0.49846264  0.66804236
   0.50114188  0.99846264  0.16804236
   0.50114188  0.99846264  0.66804236
   0.50114188  0.49846264  0.16804236
   0.50114188  0.49846264  0.66804236
  -0.00017349  0.16841572  0.99773592
  -0.00017349  0.16841572  0.49773592
  -0.00017349  0.66841572  0.99773592
  -0.00017349  0.66841572  0.49773592
   0.49982651  0.16841572  0.99773592
   0.49982651  0.16841572  0.49773592
   0.49982651  0.66841572  0.99773592
   0.49982651  0.66841572  0.49773592
   0.31331210  0.31732653  0.31641588
   0.31331210  0.31732653  0.81641588
   0.31331210  0.81732653  0.31641588
   0.31331210  0.81732653  0.81641588
   0.81331210  0.31732653  0.31641588
   0.81331210  0.31732653  0.81641588
   0.81331210  0.81732653  0.31641588
   0.81331210  0.81732653  0.81641588
   0.18668790  0.18267347  0.18358412
   0.18668790  0.18267347  0.68358412
   0.18668790  0.68267347  0.18358412
   0.18668790  0.68267347  0.68358412
   0.68668790  0.18267347  0.18358412
   0.68668790  0.18267347  0.68358412
   0.68668790  0.68267347  0.18358412
   0.68668790  0.68267347  0.68358412
unknown system                          
            1
     9.349542    0.556618    4.197808
     2.815388    9.426687    3.500702
     0.069273    1.108151   10.196192
   B    C 
    96    16
Direct configuration=     7
   0.15972985  0.40190571  0.40183266
   0.15972985  0.40190571  0.90183266
   0.15972985  0.90190571  0.40183266
   0.15972985  0.90190571  0.90183266
   0.65972985  0.40190571  0.40183266
   0.65972985  0.40190571  0.90183266
   0.65972985  0.90190571  0.40183266
   0.65972985  0.90190571  0.90183266
   0.40090179  0.40025284  0.16188686
   0.40090179  0.40025284  0.66188686
   0.40090179  0.90025284  0.16188686
   0.40090179  0.90025284  0.66188686
   0.90090179  0.40025284  0.16188686
   0.90090179  0.40025284  0.66188686
   0.90090179  0.90025284  0.16188686
   0.90090179  0.90025284  0.66188686
   0.39803988  0.16066810  0.39785256
   0.39803988  0.16066810  0.89785256
   0.39803988  0.66066810  0.39785256
   0.39803988  0.66066810  0.89785256
   0.89803988  0.16066810  0.39785256
   0.89803988  0.16066810  0.89785256
   0.89803988  0.66066810  0.39785256
   0.89803988  0.66066810  0.89785256
   0.34027015  0.09809429  0.09816734
   0.34027015  0.09809429  0.59816734
   0.34027015  0.59809429  0.09816734
   0.34027015  0.59809429  0.59816734
   0.84027015  0.09809429  0.09816734
   0.84027015  0.09809429  0.59816734
   0.84027015  0.59809429  0.09816734
   0.84027015  0.59809429  0.59816734
   0.09909821  0.09974716  0.33811314
   0.09909821  0.09974716  0.83811314
   0.09909821  0.59974716  0.33811314
   0.09909821  0.59974716  0.83811314
   0.59909821  0.09974716  0.33811314
   0.59909821  0.09974716  0.83811314
   0.59909821  0.59974716  0.33811314
   0.59909821  0.59974716  0.83811314
   0.10196012  0.33933190  0.10214744
   0.10196012  0.33933190  0.60214744
   0.10196012  0.83933190  0.10214744
   0.10196012  0.83933190  0.60214744
   0.60196012  0.33933190  0.10214744
   0.60196012  0.33933190  0.60214744
   0.60196012  0.83933190  0.10214744
   0.60196012  0.83933190  0.60214744
   0.33298626  0.00033415 -0.00057925
   0.33298626  0.00033415  0.49942075
   0.33298626  0.50033415 -0.00057925
   0.33298626  0.50033415  0.49942075
   0.83298626  0.00033415 -0.00057925
   0.83298626  0.00033415  0.49942075
   0.83298626  0.50033415 -0.00057925
   0.83298626  0.50033415  0.49942075
  -0.00114851  0.00162485  0.33190835
  -0.00114851  0.00162485  0.83190835
  -0.00114851  0.50162485  0.33190835
  -0.00114851  0.50162485  0.83190835
   0.49885149  0.00162485  0.33190835
   0.49885149  0.00162485  0.83190835
   0.49885149  0.50162485  0.33190835
   0.49885149  0.50162485  0.83190835
   0.00016775  0.33153390  0.00229932
   0.00016775  0.33153390  0.50229932
   0.00016775  0.83153390  0.00229932
   0.00016775  0.83153390  0.50229932
   0.50016775  0.33153390  0.00229932
   0.50016775  0.33153390  0.50229932
   0.50016775  0.83153390  0.00229932