 112 112   0   0
  0.7777803E+01  0.1036269E-08  0.1036269E-08  0.1036269E-08  0.5000000E-15
    2325.000000000000     
  CAR 
 unknown system                          
     13.40824335    -12.84054632  301      4.80483966      1.00000000
    -12.841  0.0000E+00  0.0000E+00
    -12.753  0.0000E+00  0.0000E+00
    -12.666  0.0000E+00  0.0000E+00
    -12.578  0.0000E+00  0.0000E+00
    -12.491  0.0000E+00  0.0000E+00
    -12.403  0.0000E+00  0.0000E+00
    -12.316  0.0000E+00  0.0000E+00
    -12.228  0.0000E+00  0.0000E+00
    -12.141  0.0000E+00  0.0000E+00
    -12.053  0.0000E+00  0.0000E+00
    -11.966  0.0000E+00  0.0000E+00
    -11.878  0.0000E+00  0.0000E+00
    -11.791  0.0000E+00  0.0000E+00
    -11.703  0.0000E+00  0.0000E+00
    -11.616  0.0000E+00  0.0000E+00
    -11.528  0.0000E+00  0.0000E+00
    -11.441  0.0000E+00  0.0000E+00
    -11.353  0.0000E+00  0.0000E+00
    -11.266  0.0000E+00  0.0000E+00
    -11.178  0.0000E+00  0.0000E+00
    -11.091  0.0000E+00  0.0000E+00
    -11.003  0.0000E+00  0.0000E+00
    -10.916  0.0000E+00  0.0000E+00
    -10.828  0.3256E+01  0.1490E+00
    -10.741  0.8885E+01  0.4663E+00
    -10.653  0.1059E+02  0.1288E+01
    -10.566  0.6413E+01  0.2075E+01
    -10.478  0.5727E+01  0.2420E+01
    -10.391  0.1141E+02  0.3294E+01
    -10.303  0.4218E+01  0.3859E+01
    -10.216  0.8018E+01  0.4324E+01
    -10.128  0.1070E+02  0.5195E+01
    -10.041  0.1025E+02  0.6044E+01
     -9.953  0.1158E+02  0.7021E+01
     -9.866  0.1395E+02  0.8133E+01
     -9.778  0.1077E+02  0.9185E+01
     -9.691  0.1338E+02  0.1021E+02
     -9.603  0.8797E+01  0.1110E+02
     -9.516  0.1347E+02  0.1202E+02
     -9.428  0.8937E+01  0.1297E+02
     -9.341  0.1188E+02  0.1383E+02
     -9.253  0.7328E+01  0.1456E+02
     -9.166  0.7014E+01  0.1516E+02
     -9.078  0.8891E+01  0.1583E+02
     -8.991  0.8971E+01  0.1660E+02
     -8.903  0.1006E+02  0.1741E+02
     -8.816  0.1107E+02  0.1831E+02
     -8.728  0.1345E+02  0.1935E+02
     -8.641  0.1461E+02  0.2063E+02
     -8.553  0.1413E+02  0.2181E+02
     -8.466  0.1292E+02  0.2296E+02
     -8.378  0.1324E+02  0.2410E+02
     -8.291  0.1522E+02  0.2528E+02
     -8.203  0.1341E+02  0.2652E+02
     -8.116  0.1261E+02  0.2766E+02
     -8.028  0.1389E+02  0.2880E+02
     -7.941  0.1278E+02  0.2989E+02
     -7.853  0.1518E+02  0.3107E+02
     -7.766  0.1527E+02  0.3239E+02
     -7.678  0.1571E+02  0.3371E+02
     -7.591  0.1312E+02  0.3481E+02
     -7.503  0.1423E+02  0.3600E+02
     -7.416  0.1503E+02  0.3725E+02
     -7.328  0.1521E+02  0.3850E+02
     -7.241  0.1395E+02  0.3976E+02
     -7.153  0.1284E+02  0.4089E+02
     -7.066  0.1152E+02  0.4194E+02
     -6.978  0.1229E+02  0.4292E+02
     -6.891  0.1360E+02  0.4405E+02
     -6.803  0.1268E+02  0.4516E+02
     -6.716  0.1435E+02  0.4642E+02
     -6.628  0.1277E+02  0.4750E+02
     -6.541  0.1481E+02  0.4870E+02
     -6.453  0.1435E+02  0.4999E+02
     -6.366  0.1960E+02  0.5120E+02
     -6.278  0.1720E+02  0.5271E+02
     -6.191  0.2195E+02  0.5436E+02
     -6.103  0.2071E+02  0.5613E+02
     -6.016  0.1927E+02  0.5781E+02
     -5.928  0.2031E+02  0.5943E+02
     -5.841  0.2256E+02  0.6124E+02
     -5.753  0.2072E+02  0.6303E+02
     -5.666  0.2036E+02  0.6479E+02
     -5.578  0.2080E+02  0.6659E+02
     -5.491  0.2047E+02  0.6831E+02
     -5.403  0.2062E+02  0.7011E+02
     -5.316  0.2118E+02  0.7191E+02
     -5.228  0.1915E+02  0.7365E+02
     -5.141  0.1796E+02  0.7521E+02
     -5.053  0.1886E+02  0.7678E+02
     -4.966  0.1799E+02  0.7836E+02
     -4.878  0.1598E+02  0.7982E+02
     -4.791  0.1492E+02  0.8116E+02
     -4.703  0.1551E+02  0.8247E+02
     -4.616  0.1606E+02  0.8389E+02
     -4.528  0.1590E+02  0.8515E+02
     -4.441  0.1467E+02  0.8646E+02
     -4.353  0.1569E+02  0.8771E+02
     -4.266  0.1571E+02  0.8903E+02
     -4.178  0.1423E+02  0.9030E+02
     -4.091  0.1212E+02  0.9147E+02
     -4.003  0.1350E+02  0.9256E+02
     -3.916  0.1094E+02  0.9361E+02
     -3.828  0.1196E+02  0.9459E+02
     -3.741  0.1256E+02  0.9563E+02
     -3.653  0.1394E+02  0.9671E+02
     -3.566  0.1458E+02  0.9797E+02
     -3.478  0.1486E+02  0.9924E+02
     -3.391  0.1717E+02  0.1006E+03
     -3.303  0.1833E+02  0.1021E+03
     -3.216  0.1640E+02  0.1037E+03
     -3.128  0.1751E+02  0.1051E+03
     -3.041  0.1981E+02  0.1067E+03
     -2.954  0.2103E+02  0.1085E+03
     -2.866  0.2269E+02  0.1104E+03
     -2.779  0.2304E+02  0.1124E+03
     -2.691  0.2355E+02  0.1144E+03
     -2.604  0.2353E+02  0.1165E+03
     -2.516  0.2443E+02  0.1186E+03
     -2.429  0.2562E+02  0.1207E+03
     -2.341  0.2676E+02  0.1230E+03
     -2.254  0.2729E+02  0.1254E+03
     -2.166  0.2752E+02  0.1277E+03
     -2.079  0.2873E+02  0.1301E+03
     -1.991  0.2913E+02  0.1325E+03
     -1.904  0.2829E+02  0.1349E+03
     -1.816  0.3034E+02  0.1373E+03
     -1.729  0.3033E+02  0.1398E+03
     -1.641  0.2990E+02  0.1423E+03
     -1.554  0.3176E+02  0.1448E+03
     -1.466  0.2952E+02  0.1473E+03
     -1.379  0.2764E+02  0.1497E+03
     -1.291  0.3047E+02  0.1521E+03
     -1.204  0.3043E+02  0.1546E+03
     -1.116  0.2978E+02  0.1571E+03
     -1.029  0.2724E+02  0.1596E+03
     -0.941  0.2906E+02  0.1620E+03
     -0.854  0.2869E+02  0.1645E+03
     -0.766  0.2821E+02  0.1670E+03
     -0.679  0.2706E+02  0.1694E+03
     -0.591  0.2812E+02  0.1718E+03
     -0.504  0.2647E+02  0.1742E+03
     -0.416  0.2844E+02  0.1766E+03
     -0.329  0.2567E+02  0.1789E+03
     -0.241  0.2773E+02  0.1813E+03
     -0.154  0.2887E+02  0.1837E+03
     -0.066  0.3025E+02  0.1863E+03
      0.021  0.3103E+02  0.1889E+03
      0.109  0.3162E+02  0.1915E+03
      0.196  0.3204E+02  0.1942E+03
      0.284  0.3261E+02  0.1969E+03
      0.371  0.3355E+02  0.1997E+03
      0.459  0.3237E+02  0.2024E+03
      0.546  0.3458E+02  0.2052E+03
      0.634  0.3819E+02  0.2082E+03
      0.721  0.3914E+02  0.2114E+03
      0.809  0.3890E+02  0.2146E+03
      0.896  0.3873E+02  0.2178E+03
      0.984  0.3875E+02  0.2211E+03
      1.071  0.3929E+02  0.2243E+03
      1.159  0.3760E+02  0.2276E+03
      1.246  0.3805E+02  0.2308E+03
      1.334  0.3754E+02  0.2340E+03
      1.421  0.3978E+02  0.2372E+03
      1.509  0.3920E+02  0.2405E+03
      1.596  0.4228E+02  0.2438E+03
      1.684  0.4175E+02  0.2472E+03
      1.771  0.4177E+02  0.2505E+03
      1.859  0.4186E+02  0.2538E+03
      1.946  0.4004E+02  0.2571E+03
      2.034  0.4144E+02  0.2604E+03
      2.121  0.4337E+02  0.2638E+03
      2.209  0.4232E+02  0.2672E+03
      2.296  0.4368E+02  0.2707E+03
      2.384  0.4243E+02  0.2741E+03
      2.471  0.4288E+02  0.2775E+03
      2.559  0.4375E+02  0.2810E+03
      2.646  0.4337E+02  0.2845E+03
      2.734  0.4249E+02  0.2879E+03
      2.821  0.4304E+02  0.2912E+03
      2.909  0.4114E+02  0.2945E+03
      2.996  0.4094E+02  0.2977E+03
      3.084  0.4027E+02  0.3009E+03
      3.171  0.3935E+02  0.3040E+03
      3.259  0.3860E+02  0.3071E+03
      3.346  0.3866E+02  0.3101E+03
      3.434  0.3552E+02  0.3130E+03
      3.521  0.3738E+02  0.3160E+03
      3.609  0.3803E+02  0.3188E+03
      3.696  0.3506E+02  0.3215E+03
      3.784  0.3644E+02  0.3243E+03
      3.871  0.3221E+02  0.3269E+03
      3.959  0.2887E+02  0.3294E+03
      4.046  0.2885E+02  0.3318E+03
      4.134  0.2590E+02  0.3341E+03
      4.221  0.2555E+02  0.3362E+03
      4.309  0.2634E+02  0.3384E+03
      4.396  0.2405E+02  0.3405E+03
      4.484  0.2374E+02  0.3424E+03
      4.571  0.2336E+02  0.3445E+03
      4.659  0.2305E+02  0.3464E+03
      4.746  0.2164E+02  0.3483E+03
      4.834  0.2028E+02  0.3500E+03
      4.921  0.2082E+02  0.3517E+03
      5.009  0.1824E+02  0.3533E+03
      5.096  0.1762E+02  0.3548E+03
      5.184  0.1790E+02  0.3562E+03
      5.271  0.1835E+02  0.3578E+03
      5.359  0.1723E+02  0.3592E+03
      5.446  0.1806E+02  0.3606E+03
      5.534  0.1624E+02  0.3621E+03
      5.621  0.1565E+02  0.3634E+03
      5.709  0.1881E+02  0.3649E+03
      5.796  0.1407E+02  0.3661E+03
      5.884  0.1532E+02  0.3674E+03
      5.971  0.1390E+02  0.3685E+03
      6.059  0.1267E+02  0.3696E+03
      6.146  0.1241E+02  0.3706E+03
      6.234  0.1175E+02  0.3717E+03
      6.321  0.1198E+02  0.3726E+03
      6.409  0.1241E+02  0.3737E+03
      6.496  0.8968E+01  0.3745E+03
      6.584  0.1003E+02  0.3754E+03
      6.671  0.9748E+01  0.3762E+03
      6.759  0.1137E+02  0.3771E+03
      6.846  0.1101E+02  0.3779E+03
      6.934  0.8551E+01  0.3787E+03
      7.021  0.8996E+01  0.3795E+03
      7.109  0.1002E+02  0.3803E+03
      7.196  0.1008E+02  0.3810E+03
      7.284  0.1193E+02  0.3820E+03
      7.371  0.1077E+02  0.3830E+03
      7.459  0.1328E+02  0.3839E+03
      7.546  0.1212E+02  0.3850E+03
      7.634  0.1019E+02  0.3859E+03
      7.721  0.1175E+02  0.3869E+03
      7.809  0.1148E+02  0.3879E+03
      7.896  0.1310E+02  0.3889E+03
      7.983  0.1314E+02  0.3901E+03
      8.071  0.1522E+02  0.3913E+03
      8.158  0.1537E+02  0.3926E+03
      8.246  0.1653E+02  0.3939E+03
      8.333  0.1690E+02  0.3953E+03
      8.421  0.1744E+02  0.3968E+03
      8.508  0.1790E+02  0.3982E+03
      8.596  0.2099E+02  0.3999E+03
      8.683  0.2047E+02  0.4016E+03
      8.771  0.2095E+02  0.4033E+03
      8.858  0.2444E+02  0.4052E+03
      8.946  0.2223E+02  0.4070E+03
      9.033  0.2243E+02  0.4089E+03
      9.121  0.2307E+02  0.4107E+03
      9.208  0.2536E+02  0.4127E+03
      9.296  0.2437E+02  0.4147E+03
      9.383  0.2371E+02  0.4167E+03
      9.471  0.2686E+02  0.4187E+03
      9.558  0.2598E+02  0.4208E+03
      9.646  0.2776E+02  0.4229E+03
      9.733  0.2810E+02  0.4251E+03
      9.821  0.2913E+02  0.4273E+03
      9.908  0.2740E+02  0.4296E+03
      9.996  0.2739E+02  0.4318E+03
     10.083  0.2659E+02  0.4339E+03
     10.171  0.2966E+02  0.4362E+03
     10.258  0.2828E+02  0.4385E+03
     10.346  0.2821E+02  0.4408E+03
     10.433  0.2705E+02  0.4432E+03
     10.521  0.2727E+02  0.4454E+03
     10.608  0.2887E+02  0.4478E+03
     10.696  0.2749E+02  0.4502E+03
     10.783  0.2783E+02  0.4525E+03
     10.871  0.2617E+02  0.4548E+03
     10.958  0.2483E+02  0.4570E+03
     11.046  0.2523E+02  0.4591E+03
     11.133  0.2588E+02  0.4613E+03
     11.221  0.2324E+02  0.4634E+03
     11.308  0.1791E+02  0.4651E+03
     11.396  0.2665E+01  0.4660E+03
     11.483  0.2483E-01  0.4660E+03
     11.571  0.0000E+00  0.4660E+03
     11.658  0.0000E+00  0.4660E+03
     11.746  0.0000E+00  0.4660E+03
     11.833  0.0000E+00  0.4660E+03
     11.921  0.0000E+00  0.4660E+03
     12.008  0.0000E+00  0.4660E+03
     12.096  0.0000E+00  0.4660E+03
     12.183  0.0000E+00  0.4660E+03
     12.271  0.0000E+00  0.4660E+03
     12.358  0.0000E+00  0.4660E+03
     12.446  0.0000E+00  0.4660E+03
     12.533  0.0000E+00  0.4660E+03
     12.621  0.0000E+00  0.4660E+03
     12.708  0.0000E+00  0.4660E+03
     12.796  0.0000E+00  0.4660E+03
     12.883  0.0000E+00  0.4660E+03
     12.971  0.0000E+00  0.4660E+03
     13.058  0.0000E+00  0.4660E+03
     13.146  0.0000E+00  0.4660E+03
     13.233  0.0000E+00  0.4660E+03
     13.321  0.0000E+00  0.4660E+03
     13.408  0.0000E+00  0.4660E+03
     13.42664266    -12.85974768  301      4.80683682      1.00000000
    -12.860  0.0000E+00  0.0000E+00
    -12.772  0.0000E+00  0.0000E+00
    -12.685  0.0000E+00  0.0000E+00
    -12.597  0.0000E+00  0.0000E+00
    -12.509  0.0000E+00  0.0000E+00
    -12.422  0.0000E+00  0.0000E+00
    -12.334  0.0000E+00  0.0000E+00
    -12.246  0.0000E+00  0.0000E+00
    -12.159  0.0000E+00  0.0000E+00
    -12.071  0.0000E+00  0.0000E+00
    -11.984  0.0000E+00  0.0000E+00
    -11.896  0.0000E+00  0.0000E+00
    -11.808  0.0000E+00  0.0000E+00
    -11.721  0.0000E+00  0.0000E+00
    -11.633  0.0000E+00  0.0000E+00
    -11.545  0.0000E+00  0.0000E+00
    -11.458  0.0000E+00  0.0000E+00
    -11.370  0.0000E+00  0.0000E+00
    -11.283  0.0000E+00  0.0000E+00
    -11.195  0.0000E+00  0.0000E+00
    -11.107  0.0000E+00  0.0000E+00
    -11.020  0.0000E+00  0.0000E+00
    -10.932  0.0000E+00  0.0000E+00
    -10.844  0.1194E-02  0.6085E-05
    -10.757  0.6045E-01  0.1900E-02
    -10.669  0.6340E-02  0.6667E-02
    -10.582  0.9894E-03  0.6671E-02
    -10.494  0.4261E-01  0.8742E-02
    -10.406  0.4377E-01  0.1252E-01
    -10.319  0.0000E+00  0.1333E-01
    -10.231  0.2895E-01  0.1410E-01
    -10.143  0.3966E-01  0.1761E-01
    -10.056  0.7804E-02  0.1992E-01
     -9.968  0.7501E-01  0.2492E-01
     -9.881  0.4906E-01  0.2792E-01
     -9.793  0.1080E-01  0.3331E-01
     -9.705  0.3882E-01  0.3383E-01
     -9.618  0.3306E-01  0.3743E-01
     -9.530  0.1426E-01  0.3950E-01
     -9.443  0.2745E+00  0.4401E-01
     -9.355  0.0000E+00  0.4667E-01
     -9.267  0.3619E-01  0.4790E-01
     -9.180  0.4978E-01  0.5192E-01
     -9.092  0.2689E-01  0.5420E-01
     -9.004  0.4343E-01  0.5786E-01
     -8.917  0.0000E+00  0.6000E-01
     -8.829  0.1247E-01  0.6034E-01
     -8.742  0.3988E-01  0.6255E-01
     -8.654  0.6127E-01  0.6704E-01
     -8.566  0.4943E-01  0.7119E-01
     -8.479  0.4023E-01  0.7610E-01
     -8.391  0.4730E-01  0.7966E-01
     -8.303  0.4951E-01  0.8397E-01
     -8.216  0.4136E-01  0.8852E-01
     -8.128  0.7429E-01  0.9268E-01
     -8.041  0.3605E-01  0.9447E-01
     -7.953  0.3415E-01  0.9927E-01
     -7.865  0.6252E-01  0.1024E+00
     -7.778  0.5945E-01  0.1081E+00
     -7.690  0.2864E-01  0.1119E+00
     -7.602  0.4453E-01  0.1146E+00
     -7.515  0.6315E-01  0.1187E+00
     -7.427  0.4625E-01  0.1237E+00
     -7.340  0.4665E-01  0.1287E+00
     -7.252  0.5298E-01  0.1330E+00
     -7.164  0.6620E-01  0.1373E+00
     -7.077  0.4150E-01  0.1424E+00
     -6.989  0.2647E-01  0.1452E+00
     -6.901  0.6064E-01  0.1487E+00
     -6.814  0.2499E-01  0.1526E+00
     -6.726  0.4463E-01  0.1576E+00
     -6.639  0.1618E-01  0.1598E+00
     -6.551  0.4571E-01  0.1622E+00
     -6.463  0.7805E-02  0.1667E+00
     -6.376  0.8853E-01  0.1722E+00
     -6.288  0.1740E+00  0.1760E+00
     -6.201  0.7754E-01  0.1818E+00
     -6.113  0.5229E-01  0.1869E+00
     -6.025  0.6964E-01  0.1922E+00
     -5.938  0.9596E-01  0.1981E+00
     -5.850  0.6929E-01  0.2057E+00
     -5.762  0.5870E-01  0.2099E+00
     -5.675  0.7873E-01  0.2173E+00
     -5.587  0.6229E-01  0.2239E+00
     -5.500  0.5559E-01  0.2301E+00
     -5.412  0.6000E-01  0.2364E+00
     -5.324  0.7388E-01  0.2423E+00
     -5.237  0.7759E-01  0.2498E+00
     -5.149  0.6025E-01  0.2555E+00
     -5.061  0.7190E-01  0.2605E+00
     -4.974  0.7443E-01  0.2668E+00
     -4.886  0.3716E-01  0.2713E+00
     -4.799  0.9482E-02  0.2735E+00
     -4.711  0.6974E-01  0.2762E+00
     -4.623  0.3229E-01  0.2807E+00
     -4.536  0.5952E-01  0.2848E+00
     -4.448  0.5086E-01  0.2893E+00
     -4.360  0.7446E-01  0.2942E+00
     -4.273  0.7563E-01  0.2993E+00
     -4.185  0.3975E-01  0.3042E+00
     -4.098  0.5466E-01  0.3079E+00
     -4.010  0.3646E-01  0.3125E+00
     -3.922  0.5577E-01  0.3161E+00
     -3.835  0.2734E-01  0.3202E+00
     -3.747  0.3773E-01  0.3225E+00
     -3.660  0.2422E-01  0.3255E+00
     -3.572  0.3495E-01  0.3279E+00
     -3.484  0.6845E-01  0.3324E+00
     -3.397  0.5754E-01  0.3383E+00
     -3.309  0.4987E-01  0.3430E+00
     -3.221  0.4868E-01  0.3486E+00
     -3.134  0.6367E-01  0.3532E+00
     -3.046  0.6478E-01  0.3590E+00
     -2.959  0.7967E-01  0.3653E+00
     -2.871  0.7865E-01  0.3724E+00
     -2.783  0.7980E-01  0.3792E+00
     -2.696  0.8179E-01  0.3863E+00
     -2.608  0.6799E-01  0.3929E+00
     -2.520  0.7685E-01  0.3992E+00
     -2.433  0.6943E-01  0.4052E+00
     -2.345  0.8815E-01  0.4127E+00
     -2.258  0.8417E-01  0.4205E+00
     -2.170  0.8712E-01  0.4276E+00
     -2.082  0.9552E-01  0.4354E+00
     -1.995  0.1060E+00  0.4440E+00
     -1.907  0.9809E-01  0.4534E+00
     -1.819  0.9617E-01  0.4624E+00
     -1.732  0.1062E+00  0.4722E+00
     -1.644  0.5123E-01  0.4787E+00
     -1.557  0.1534E+00  0.4847E+00
     -1.469  0.1127E+00  0.4952E+00
     -1.381  0.1020E+00  0.5041E+00
     -1.294  0.9605E-01  0.5121E+00
     -1.206  0.1177E+00  0.5216E+00
     -1.118  0.7888E-01  0.5305E+00
     -1.031  0.8154E-01  0.5370E+00
     -0.943  0.1095E+00  0.5455E+00
     -0.856  0.9194E-01  0.5553E+00
     -0.768  0.7732E-01  0.5627E+00
     -0.680  0.7941E-01  0.5690E+00
     -0.593  0.9548E-01  0.5772E+00
     -0.505  0.7560E-01  0.5842E+00
     -0.418  0.8402E-01  0.5924E+00
     -0.330  0.6732E-01  0.5993E+00
     -0.242  0.9686E-01  0.6066E+00
     -0.155  0.9793E-01  0.6163E+00
     -0.067  0.9170E-01  0.6244E+00
      0.021  0.8924E-01  0.6324E+00
      0.108  0.1045E+00  0.6402E+00
      0.196  0.1144E+00  0.6505E+00
      0.283  0.1032E+00  0.6589E+00
      0.371  0.2130E+00  0.6712E+00
      0.459  0.1127E+00  0.6816E+00
      0.546  0.9711E-01  0.6905E+00
      0.634  0.1081E+00  0.6994E+00
      0.722  0.1427E+00  0.7105E+00
      0.809  0.1571E+00  0.7230E+00
      0.897  0.1365E+00  0.7335E+00
      0.984  0.1139E+00  0.7438E+00
      1.072  0.1721E+00  0.7542E+00
      1.160  0.1413E+00  0.7677E+00
      1.247  0.1473E+00  0.7807E+00
      1.335  0.9606E-01  0.7923E+00
      1.423  0.1442E+00  0.8024E+00
      1.510  0.1280E+00  0.8157E+00
      1.598  0.1498E+00  0.8261E+00
      1.685  0.1249E+00  0.8378E+00
      1.773  0.1516E+00  0.8469E+00
      1.861  0.1115E+00  0.8583E+00
      1.948  0.1233E+00  0.8681E+00
      2.036  0.1787E+00  0.8788E+00
      2.123  0.1079E+00  0.8905E+00
      2.211  0.1185E+00  0.9020E+00
      2.299  0.1531E+00  0.9123E+00
      2.386  0.1500E+00  0.9240E+00
      2.474  0.1311E+00  0.9373E+00
      2.562  0.1442E+00  0.9496E+00
      2.649  0.1343E+00  0.9597E+00
      2.737  0.1275E+00  0.9712E+00
      2.824  0.1322E+00  0.9844E+00
      2.912  0.1572E+00  0.9956E+00
      3.000  0.1673E+00  0.1008E+01
      3.087  0.1875E+00  0.1020E+01
      3.175  0.1355E+00  0.1029E+01
      3.263  0.1372E+00  0.1041E+01
      3.350  0.1072E+00  0.1053E+01
      3.438  0.1366E+00  0.1064E+01
      3.525  0.1128E+00  0.1073E+01
      3.613  0.9834E-01  0.1081E+01
      3.701  0.1252E+00  0.1091E+01
      3.788  0.6524E-01  0.1099E+01
      3.876  0.7183E-01  0.1106E+01
      3.964  0.1144E+00  0.1114E+01
      4.051  0.7772E-01  0.1123E+01
      4.139  0.5322E-01  0.1129E+01
      4.226  0.7999E-01  0.1135E+01
      4.314  0.2921E-01  0.1140E+01
      4.402  0.9409E-01  0.1147E+01
      4.489  0.6647E-01  0.1154E+01
      4.577  0.6779E-01  0.1159E+01
      4.665  0.6327E-01  0.1163E+01
      4.752  0.6800E-01  0.1170E+01
      4.840  0.3872E-01  0.1175E+01
      4.927  0.6004E-01  0.1180E+01
      5.015  0.4794E-01  0.1187E+01
      5.103  0.6022E-01  0.1190E+01
      5.190  0.4496E-01  0.1195E+01
      5.278  0.2334E-01  0.1200E+01
      5.365  0.4739E-01  0.1202E+01
      5.453  0.6943E-01  0.1208E+01
      5.541  0.2904E-01  0.1213E+01
      5.628  0.8332E-01  0.1218E+01
      5.716  0.5547E-01  0.1222E+01
      5.804  0.2988E-01  0.1226E+01
      5.891  0.3927E-01  0.1231E+01
      5.979  0.2200E-01  0.1233E+01
      6.066  0.3872E-01  0.1236E+01
      6.154  0.2852E-01  0.1239E+01
      6.242  0.6504E-01  0.1243E+01
      6.329  0.6300E-01  0.1247E+01
      6.417  0.5746E-01  0.1252E+01
      6.505  0.3503E-01  0.1256E+01
      6.592  0.2683E-01  0.1258E+01
      6.680  0.5617E-01  0.1262E+01
      6.767  0.2296E-01  0.1266E+01
      6.855  0.1262E-02  0.1267E+01
      6.943  0.1981E-01  0.1267E+01
      7.030  0.4230E-01  0.1271E+01
      7.118  0.1141E-01  0.1273E+01
      7.206  0.1559E-01  0.1274E+01
      7.293  0.4322E-01  0.1277E+01
      7.381  0.4328E-01  0.1280E+01
      7.468  0.3753E-01  0.1284E+01
      7.556  0.1101E-01  0.1286E+01
      7.644  0.1137E-01  0.1287E+01
      7.731  0.5299E-01  0.1290E+01
      7.819  0.3280E-01  0.1294E+01
      7.907  0.5554E-01  0.1298E+01
      7.994  0.4513E-01  0.1302E+01
      8.082  0.5482E-01  0.1308E+01
      8.169  0.6284E-01  0.1312E+01
      8.257  0.6454E-01  0.1318E+01
      8.345  0.6594E-01  0.1324E+01
      8.432  0.5725E-01  0.1327E+01
      8.520  0.5754E-01  0.1334E+01
      8.607  0.3566E-01  0.1340E+01
      8.695  0.7249E-01  0.1344E+01
      8.783  0.7161E-01  0.1350E+01
      8.870  0.3526E-01  0.1354E+01
      8.958  0.5940E-01  0.1358E+01
      9.046  0.7520E-01  0.1365E+01
      9.133  0.3571E+00  0.1372E+01
      9.221  0.5795E-01  0.1380E+01
      9.308  0.8555E-01  0.1386E+01
      9.396  0.7134E-01  0.1392E+01
      9.484  0.1403E+00  0.1401E+01
      9.571  0.1113E+00  0.1409E+01
      9.659  0.8278E-01  0.1416E+01
      9.747  0.7510E-01  0.1422E+01
      9.834  0.7987E-01  0.1429E+01
      9.922  0.8614E-01  0.1437E+01
     10.009  0.8585E-01  0.1444E+01
     10.097  0.6492E-01  0.1451E+01
     10.185  0.8503E-01  0.1458E+01
     10.272  0.9121E-01  0.1466E+01
     10.360  0.1028E+00  0.1474E+01
     10.448  0.6957E-01  0.1481E+01
     10.535  0.7947E-01  0.1487E+01
     10.623  0.7827E-01  0.1493E+01
     10.710  0.7742E-01  0.1500E+01
     10.798  0.1065E+00  0.1508E+01
     10.886  0.7157E-01  0.1516E+01
     10.973  0.3510E-01  0.1522E+01
     11.061  0.1129E+00  0.1528E+01
     11.148  0.5703E-01  0.1535E+01
     11.236  0.9465E-01  0.1544E+01
     11.324  0.5554E-01  0.1548E+01
     11.411  0.3110E-01  0.1553E+01
     11.499  0.0000E+00  0.1553E+01
     11.587  0.0000E+00  0.1553E+01
     11.674  0.0000E+00  0.1553E+01
     11.762  0.0000E+00  0.1553E+01
     11.849  0.0000E+00  0.1553E+01
     11.937  0.0000E+00  0.1553E+01
     12.025  0.0000E+00  0.1553E+01
     12.112  0.0000E+00  0.1553E+01
     12.200  0.0000E+00  0.1553E+01
     12.288  0.0000E+00  0.1553E+01
     12.375  0.0000E+00  0.1553E+01
     12.463  0.0000E+00  0.1553E+01
     12.550  0.0000E+00  0.1553E+01
     12.638  0.0000E+00  0.1553E+01
     12.726  0.0000E+00  0.1553E+01
     12.813  0.0000E+00  0.1553E+01
     12.901  0.0000E+00  0.1553E+01
     12.989  0.0000E+00  0.1553E+01
     13.076  0.0000E+00  0.1553E+01
     13.164  0.0000E+00  0.1553E+01
     13.251  0.0000E+00  0.1553E+01
     13.339  0.0000E+00  0.1553E+01
     13.427  0.0000E+00  0.1553E+01
