[1651568484.482805] [c0901a-s35:102212:0]    ucp_context.c:1075 UCX  ERROR exceeded transports/devices limit (78 requested, up to 64 are supported)
 running on    1 total cores
 distrk:  each k-point on    1 cores,    1 groups
 distr:  one band on    1 cores,    1 groups
 OpenACC runtime initialized ...    1 GPUs detected
 vasp.6.2.0 18Jan21 (build Feb 25 2021 07:51:20) complex                         
 POSCAR found type information on POSCAR B C 
 POSCAR found :  2 types and     112 ions
 scaLAPACK will be used selectively (only on CPU)
 LDA part: xc-table for Pade appr. of Perdew
 -----------------------------------------------------------------------------
|                                                                             |
|           W    W    AA    RRRRR   N    N  II  N    N   GGGG   !!!           |
|           W    W   A  A   R    R  NN   N  II  NN   N  G    G  !!!           |
|           W    W  A    A  R    R  N N  N  II  N N  N  G       !!!           |
|           W WW W  AAAAAA  RRRRR   N  N N  II  N  N N  G  GGG   !            |
|           WW  WW  A    A  R   R   N   NN  II  N   NN  G    G                |
|           W    W  A    A  R    R  N    N  II  N    N   GGGG   !!!           |
|                                                                             |
|     The requested file  could not be found or opened for reading            |
|     k-point information. Automatic k-point generation is used as a          |
|     fallback, which may lead to unwanted results.                           |
|                                                                             |
 -----------------------------------------------------------------------------

 POSCAR, INCAR and KPOINTS ok, starting setup
 FFT: planning ...
 WAVECAR not read
 WARNING: random wavefunctions but no delay for mixing, default for NELMDL
 prediction of wavefunctions initialized - no I/O
 entering main loop
       N       E                     dE             d eps       ncg     rms          rms(c)
DAV:   1     0.136363852569E+04    0.13636E+04   -0.19746E+05  3728   0.176E+03
DAV:   2    -0.713214971301E+03   -0.20769E+04   -0.19592E+04  4680   0.306E+02
DAV:   3    -0.837433910367E+03   -0.12422E+03   -0.12093E+03  4424   0.664E+01
DAV:   4    -0.840268219889E+03   -0.28343E+01   -0.28180E+01  4376   0.105E+01
DAV:   5    -0.840344982744E+03   -0.76763E-01   -0.76621E-01  4352   0.164E+00    0.386E+01
RMM:   6    -0.804418201303E+03    0.35927E+02   -0.32787E+01  3728   0.842E+00    0.217E+01
RMM:   7    -0.793813932562E+03    0.10604E+02   -0.32286E+01  3728   0.878E+00    0.506E+00
RMM:   8    -0.793993554808E+03   -0.17962E+00   -0.33906E+00  3728   0.357E+00    0.227E+00
RMM:   9    -0.794053190239E+03   -0.59635E-01   -0.33807E-01  3728   0.116E+00    0.947E-01
RMM:  10    -0.794038531694E+03    0.14659E-01   -0.80691E-02  3728   0.503E-01    0.404E-01
RMM:  11    -0.794032710559E+03    0.58211E-02   -0.24022E-02  3745   0.256E-01    0.225E-01
RMM:  12    -0.794035027320E+03   -0.23168E-02   -0.55610E-03  3742   0.123E-01    0.125E-01
RMM:  13    -0.794036385463E+03   -0.13581E-02   -0.15557E-03  3744   0.606E-02    0.110E-01
RMM:  14    -0.794037258787E+03   -0.87332E-03   -0.43949E-04  2918   0.323E-02    0.862E-02
RMM:  15    -0.794035886077E+03    0.13727E-02   -0.25463E-04  2645   0.227E-02    0.130E-01
RMM:  16    -0.794035949397E+03   -0.63321E-04   -0.81040E-05  2289   0.151E-02
    1 T=  2325. E= -.76067378E+03 F= -.79403595E+03 E0= -.79403595E+03  EK= 0.33362E+02 SP= 0.00E+00 SK= 0.94E-09
 bond charge predicted
 -----------------------------------------------------------------------------
|                                                                             |
|           W    W    AA    RRRRR   N    N  II  N    N   GGGG   !!!           |
|           W    W   A  A   R    R  NN   N  II  NN   N  G    G  !!!           |
|           W    W  A    A  R    R  N N  N  II  N N  N  G       !!!           |
|           W WW W  AAAAAA  RRRRR   N  N N  II  N  N N  G  GGG   !            |
|           WW  WW  A    A  R   R   N   NN  II  N   NN  G    G                |
|           W    W  A    A  R    R  N    N  II  N    N   GGGG   !!!           |
|                                                                             |
|     Tetrahedron method does not include variations of the Fermi             |
|     occupations, so forces and stress will be inaccurate. We suggest        |
|     using a different smearing scheme ISMEAR = 1 or 2 for metals in         |
|     relaxations.                                                            |
|                                                                             |
 -----------------------------------------------------------------------------

       N       E                     dE             d eps       ncg     rms          rms(c)
DAV:   1    -0.793890671635E+03    0.14521E+00   -0.15498E+01  4016   0.855E+00    0.110E+00
RMM:   2    -0.793883627224E+03    0.70444E-02   -0.27269E-01  3728   0.114E+00    0.639E-01
RMM:   3    -0.793881590630E+03    0.20366E-02   -0.45158E-02  3735   0.424E-01    0.438E-01
RMM:   4    -0.793879116325E+03    0.24743E-02   -0.14452E-02  3744   0.210E-01    0.150E-01
RMM:   5    -0.793879309387E+03   -0.19306E-03   -0.23636E-03  3788   0.912E-02    0.155E-01
RMM:   6    -0.793879137488E+03    0.17190E-03   -0.56943E-04  3371   0.419E-02    0.672E-02
RMM:   7    -0.793879441791E+03   -0.30430E-03   -0.18922E-04  2368   0.237E-02    0.332E-02
RMM:   8    -0.793879621371E+03   -0.17958E-03   -0.47486E-05  2288   0.117E-02    0.259E-02
RMM:   9    -0.793879627691E+03   -0.63204E-05   -0.18409E-05  2181   0.684E-03
    2 T=  2314. E= -.76067798E+03 F= -.79387963E+03 E0= -.79387963E+03  EK= 0.33202E+02 SP= 0.79E-04 SK= 0.21E-05
Information: wavefunction orthogonal band  232  0.8392
Information: wavefunction orthogonal band  226  0.8431
Information: wavefunction orthogonal band  232  0.7953
Information: wavefunction orthogonal band  233  0.8871
Information: wavefunction orthogonal band  231  0.8795
Information: wavefunction orthogonal band  232  0.8394
Information: wavefunction orthogonal band  230  0.8725
 bond charge predicted
 prediction of wavefunctions
 -----------------------------------------------------------------------------
|                                                                             |
|           W    W    AA    RRRRR   N    N  II  N    N   GGGG   !!!           |
|           W    W   A  A   R    R  NN   N  II  NN   N  G    G  !!!           |
|           W    W  A    A  R    R  N N  N  II  N N  N  G       !!!           |
|           W WW W  AAAAAA  RRRRR   N  N N  II  N  N N  G  GGG   !            |
|           WW  WW  A    A  R   R   N   NN  II  N   NN  G    G                |
|           W    W  A    A  R    R  N    N  II  N    N   GGGG   !!!           |
|                                                                             |
|     Tetrahedron method does not include variations of the Fermi             |
|     occupations, so forces and stress will be inaccurate. We suggest        |
|     using a different smearing scheme ISMEAR = 1 or 2 for metals in         |
|     relaxations.                                                            |
|                                                                             |
 -----------------------------------------------------------------------------

       N       E                     dE             d eps       ncg     rms          rms(c)
DAV:   1    -0.793389282871E+03    0.49034E+00   -0.51221E-02  4920   0.148E+00    0.247E-01
RMM:   2    -0.793390394386E+03   -0.11115E-02   -0.34514E-02  3728   0.465E-01    0.133E-01
RMM:   3    -0.793390720349E+03   -0.32596E-03   -0.33479E-03  3729   0.137E-01    0.772E-02
RMM:   4    -0.793390958946E+03   -0.23860E-03   -0.63593E-04  3489   0.514E-02    0.684E-02
RMM:   5    -0.793391031334E+03   -0.72388E-04   -0.13995E-04  2275   0.224E-02
    3 T=  2280. E= -.76067861E+03 F= -.79339103E+03 E0= -.79339103E+03  EK= 0.32716E+02 SP= -.37E-02 SK= 0.84E-04
 bond charge predicted
 prediction of wavefunctions
 -----------------------------------------------------------------------------
|                                                                             |
|           W    W    AA    RRRRR   N    N  II  N    N   GGGG   !!!           |
|           W    W   A  A   R    R  NN   N  II  NN   N  G    G  !!!           |
|           W    W  A    A  R    R  N N  N  II  N N  N  G       !!!           |
|           W WW W  AAAAAA  RRRRR   N  N N  II  N  N N  G  GGG   !            |
|           WW  WW  A    A  R   R   N   NN  II  N   NN  G    G                |
|           W    W  A    A  R    R  N    N  II  N    N   GGGG   !!!           |
|                                                                             |
|     Tetrahedron method does not include variations of the Fermi             |
|     occupations, so forces and stress will be inaccurate. We suggest        |
|     using a different smearing scheme ISMEAR = 1 or 2 for metals in         |
|     relaxations.                                                            |
|                                                                             |
 -----------------------------------------------------------------------------

       N       E                     dE             d eps       ncg     rms          rms(c)
DAV:   1    -0.792581831514E+03    0.80913E+00   -0.14903E-01  4560   0.151E+00    0.300E-01
RMM:   2    -0.792586026332E+03   -0.41948E-02   -0.47187E-02  3728   0.501E-01    0.140E-01
RMM:   3    -0.792586308995E+03   -0.28266E-03   -0.54298E-03  3729   0.162E-01    0.795E-02
RMM:   4    -0.792586383383E+03   -0.74388E-04   -0.10081E-03  3726   0.621E-02    0.502E-02
RMM:   5    -0.792586393398E+03   -0.10015E-04   -0.25833E-04  2525   0.290E-02
    4 T=  2226. E= -.76067584E+03 F= -.79258639E+03 E0= -.79258639E+03  EK= 0.31933E+02 SP= -.23E-01 SK= 0.84E-03
Information: wavefunction orthogonal band  232  0.8240
Information: wavefunction orthogonal band  233  0.8272
Information: wavefunction orthogonal band  231  0.8994
 bond charge predicted
 prediction of wavefunctions
 -----------------------------------------------------------------------------
|                                                                             |
|           W    W    AA    RRRRR   N    N  II  N    N   GGGG   !!!           |
|           W    W   A  A   R    R  NN   N  II  NN   N  G    G  !!!           |
|           W    W  A    A  R    R  N N  N  II  N N  N  G       !!!           |
|           W WW W  AAAAAA  RRRRR   N  N N  II  N  N N  G  GGG   !            |
|           WW  WW  A    A  R   R   N   NN  II  N   NN  G    G                |
|           W    W  A    A  R    R  N    N  II  N    N   GGGG   !!!           |
|                                                                             |
|     Tetrahedron method does not include variations of the Fermi             |
|     occupations, so forces and stress will be inaccurate. We suggest        |
|     using a different smearing scheme ISMEAR = 1 or 2 for metals in         |
|     relaxations.                                                            |
|                                                                             |
 -----------------------------------------------------------------------------

       N       E                     dE             d eps       ncg     rms          rms(c)
DAV:   1    -0.791489854232E+03    0.10965E+01   -0.42248E-02  5503   0.136E+00    0.334E-01
RMM:   2    -0.791489145449E+03    0.70878E-03   -0.24342E-02  3729   0.336E-01    0.167E-01
RMM:   3    -0.791488787157E+03    0.35829E-03   -0.42080E-03  3730   0.128E-01    0.102E-01
RMM:   4    -0.791488829213E+03   -0.42056E-04   -0.78521E-04  3669   0.539E-02
    5 T=  2153. E= -.76067133E+03 F= -.79148883E+03 E0= -.79148883E+03  EK= 0.30891E+02 SP= -.78E-01 SK= 0.44E-02
Information: wavefunction orthogonal band  232  0.8946
Information: wavefunction orthogonal band  233  0.8570
Information: wavefunction orthogonal band  233  0.8928
 bond charge predicted
 prediction of wavefunctions
 -----------------------------------------------------------------------------
|                                                                             |
|           W    W    AA    RRRRR   N    N  II  N    N   GGGG   !!!           |
|           W    W   A  A   R    R  NN   N  II  NN   N  G    G  !!!           |
|           W    W  A    A  R    R  N N  N  II  N N  N  G       !!!           |
|           W WW W  AAAAAA  RRRRR   N  N N  II  N  N N  G  GGG   !            |
|           WW  WW  A    A  R   R   N   NN  II  N   NN  G    G                |
|           W    W  A    A  R    R  N    N  II  N    N   GGGG   !!!           |
|                                                                             |
|     Tetrahedron method does not include variations of the Fermi             |
|     occupations, so forces and stress will be inaccurate. We suggest        |
|     using a different smearing scheme ISMEAR = 1 or 2 for metals in         |
|     relaxations.                                                            |
|                                                                             |
 -----------------------------------------------------------------------------

       N       E                     dE             d eps       ncg     rms          rms(c)
DAV:   1    -0.790124392349E+03    0.13644E+01   -0.33746E-02  5517   0.131E+00    0.157E-01
RMM:   2    -0.790124607728E+03   -0.21538E-03   -0.18830E-02  3728   0.286E-01    0.665E-02
RMM:   3    -0.790124875022E+03   -0.26729E-03   -0.25893E-03  3729   0.103E-01    0.541E-02
RMM:   4    -0.790124997843E+03   -0.12282E-03   -0.50104E-04  3223   0.426E-02    0.434E-02
RMM:   5    -0.790124995663E+03    0.21794E-05   -0.13781E-04  2289   0.208E-02
    6 T=  2066. E= -.76066501E+03 F= -.79012500E+03 E0= -.79012500E+03  EK= 0.29638E+02 SP= -.19E+00 SK= 0.16E-01
Information: wavefunction orthogonal band  233  0.8143
Information: wavefunction orthogonal band  233  0.8747
Information: wavefunction orthogonal band  232  0.8734
Information: wavefunction orthogonal band  232  0.8733
Information: wavefunction orthogonal band  233  0.8661
Information: wavefunction orthogonal band  231  0.8673
 bond charge predicted
 prediction of wavefunctions
 -----------------------------------------------------------------------------
|                                                                             |
|           W    W    AA    RRRRR   N    N  II  N    N   GGGG   !!!           |
|           W    W   A  A   R    R  NN   N  II  NN   N  G    G  !!!           |
|           W    W  A    A  R    R  N N  N  II  N N  N  G       !!!           |
|           W WW W  AAAAAA  RRRRR   N  N N  II  N  N N  G  GGG   !            |
|           WW  WW  A    A  R   R   N   NN  II  N   NN  G    G                |
|           W    W  A    A  R    R  N    N  II  N    N   GGGG   !!!           |
|                                                                             |
|     Tetrahedron method does not include variations of the Fermi             |
|     occupations, so forces and stress will be inaccurate. We suggest        |
|     using a different smearing scheme ISMEAR = 1 or 2 for metals in         |
|     relaxations.                                                            |
|                                                                             |
 -----------------------------------------------------------------------------

       N       E                     dE             d eps       ncg     rms          rms(c)
DAV:   1    -0.788530121426E+03    0.15949E+01   -0.25086E-02  5804   0.125E+00    0.161E-01
RMM:   2    -0.788531020344E+03   -0.89892E-03   -0.13671E-02  3728   0.243E-01    0.802E-02
RMM:   3    -0.788531284910E+03   -0.26457E-03   -0.20616E-03  3743   0.885E-02    0.453E-02
RMM:   4    -0.788531245877E+03    0.39033E-04   -0.40576E-04  2924   0.367E-02
    7 T=  1968. E= -.76065788E+03 F= -.78853125E+03 E0= -.78853125E+03  EK= 0.28230E+02 SP= -.40E+00 SK= 0.44E-01
Information: wavefunction orthogonal band  233  0.8821
Information: wavefunction orthogonal band  233  0.8951
 bond charge predicted
 prediction of wavefunctions
 -----------------------------------------------------------------------------
|                                                                             |
|           W    W    AA    RRRRR   N    N  II  N    N   GGGG   !!!           |
|           W    W   A  A   R    R  NN   N  II  NN   N  G    G  !!!           |
|           W    W  A    A  R    R  N N  N  II  N N  N  G       !!!           |
|           W WW W  AAAAAA  RRRRR   N  N N  II  N  N N  G  GGG   !            |
|           WW  WW  A    A  R   R   N   NN  II  N   NN  G    G                |
|           W    W  A    A  R    R  N    N  II  N    N   GGGG   !!!           |
|                                                                             |
|     Tetrahedron method does not include variations of the Fermi             |
|     occupations, so forces and stress will be inaccurate. We suggest        |
|     using a different smearing scheme ISMEAR = 1 or 2 for metals in         |
|     relaxations.                                                            |
|                                                                             |
 -----------------------------------------------------------------------------

       N       E                     dE             d eps       ncg     rms          rms(c)
DAV:   1    -0.786746856110E+03    0.17844E+01   -0.24848E-02  5951   0.119E+00    0.708E-02
RMM:   2    -0.786748019541E+03   -0.11634E-02   -0.10653E-02  3728   0.208E-01    0.368E-02
RMM:   3    -0.786748172809E+03   -0.15327E-03   -0.14770E-03  3731   0.762E-02    0.286E-02
RMM:   4    -0.786748208122E+03   -0.35313E-04   -0.30176E-04  2617   0.317E-02
    8 T=  1863. E= -.76065053E+03 F= -.78674821E+03 E0= -.78674821E+03  EK= 0.26729E+02 SP= -.74E+00 SK= 0.10E+00
Information: wavefunction orthogonal band  233  0.8835
 bond charge predicted
 prediction of wavefunctions
 -----------------------------------------------------------------------------
|                                                                             |
|           W    W    AA    RRRRR   N    N  II  N    N   GGGG   !!!           |
|           W    W   A  A   R    R  NN   N  II  NN   N  G    G  !!!           |
|           W    W  A    A  R    R  N N  N  II  N N  N  G       !!!           |
|           W WW W  AAAAAA  RRRRR   N  N N  II  N  N N  G  GGG   !            |
|           WW  WW  A    A  R   R   N   NN  II  N   NN  G    G                |
|           W    W  A    A  R    R  N    N  II  N    N   GGGG   !!!           |
|                                                                             |
|     Tetrahedron method does not include variations of the Fermi             |
|     occupations, so forces and stress will be inaccurate. We suggest        |
|     using a different smearing scheme ISMEAR = 1 or 2 for metals in         |
|     relaxations.                                                            |
|                                                                             |
 -----------------------------------------------------------------------------

       N       E                     dE             d eps       ncg     rms          rms(c)
DAV:   1    -0.784817801697E+03    0.19304E+01   -0.19944E-02  5995   0.113E+00    0.497E-02
RMM:   2    -0.784818647430E+03   -0.84573E-03   -0.91118E-03  3729   0.194E-01    0.319E-02
RMM:   3    -0.784818849606E+03   -0.20218E-03   -0.14100E-03  3732   0.727E-02    0.287E-02
RMM:   4    -0.784818870488E+03   -0.20881E-04   -0.28607E-04  2559   0.307E-02
    9 T=  1756. E= -.76064309E+03 F= -.78481887E+03 E0= -.78481887E+03  EK= 0.25192E+02 SP= -.12E+01 SK= 0.22E+00
Information: wavefunction orthogonal band  233  0.8692
Information: wavefunction orthogonal band  233  0.8930
Information: wavefunction orthogonal band  232  0.8408
 bond charge predicted
 prediction of wavefunctions
 -----------------------------------------------------------------------------
|                                                                             |
|           W    W    AA    RRRRR   N    N  II  N    N   GGGG   !!!           |
|           W    W   A  A   R    R  NN   N  II  NN   N  G    G  !!!           |
|           W    W  A    A  R    R  N N  N  II  N N  N  G       !!!           |
|           W WW W  AAAAAA  RRRRR   N  N N  II  N  N N  G  GGG   !            |
|           WW  WW  A    A  R   R   N   NN  II  N   NN  G    G                |
|           W    W  A    A  R    R  N    N  II  N    N   GGGG   !!!           |
|                                                                             |
|     Tetrahedron method does not include variations of the Fermi             |
|     occupations, so forces and stress will be inaccurate. We suggest        |
|     using a different smearing scheme ISMEAR = 1 or 2 for metals in         |
|     relaxations.                                                            |
|                                                                             |
 -----------------------------------------------------------------------------

       N       E                     dE             d eps       ncg     rms          rms(c)
DAV:   1    -0.782787116355E+03    0.20317E+01   -0.19396E-02  5917   0.107E+00    0.517E-02
RMM:   2    -0.782787790714E+03   -0.67436E-03   -0.76799E-03  3728   0.175E-01    0.230E-02
RMM:   3    -0.782787973236E+03   -0.18252E-03   -0.11503E-03  3693   0.660E-02    0.149E-02
RMM:   4    -0.782787983543E+03   -0.10307E-04   -0.22792E-04  2395   0.277E-02
   10 T=  1650. E= -.76063593E+03 F= -.78278798E+03 E0= -.78278798E+03  EK= 0.23679E+02 SP= -.19E+01 SK= 0.41E+00
Information: wavefunction orthogonal band  230  0.8927
Information: wavefunction orthogonal band  231  0.8893
 bond charge predicted
 prediction of wavefunctions
 -----------------------------------------------------------------------------
|                                                                             |
|           W    W    AA    RRRRR   N    N  II  N    N   GGGG   !!!           |
|           W    W   A  A   R    R  NN   N  II  NN   N  G    G  !!!           |
|           W    W  A    A  R    R  N N  N  II  N N  N  G       !!!           |
|           W WW W  AAAAAA  RRRRR   N  N N  II  N  N N  G  GGG   !            |
|           WW  WW  A    A  R   R   N   NN  II  N   NN  G    G                |
|           W    W  A    A  R    R  N    N  II  N    N   GGGG   !!!           |
|                                                                             |
|     Tetrahedron method does not include variations of the Fermi             |
|     occupations, so forces and stress will be inaccurate. We suggest        |
|     using a different smearing scheme ISMEAR = 1 or 2 for metals in         |
|     relaxations.                                                            |
|                                                                             |
 -----------------------------------------------------------------------------

       N       E                     dE             d eps       ncg     rms          rms(c)
DAV:   1    -0.780699602606E+03    0.20884E+01   -0.19165E-02  5899   0.102E+00    0.439E-02
RMM:   2    -0.780700547126E+03   -0.94452E-03   -0.79149E-03  3729   0.169E-01    0.199E-02
RMM:   3    -0.780700670405E+03   -0.12328E-03   -0.12851E-03  3719   0.662E-02    0.141E-02
RMM:   4    -0.780700705587E+03   -0.35182E-04   -0.25463E-04  2500   0.277E-02
   11 T=  1550. E= -.76062977E+03 F= -.78070071E+03 E0= -.78070071E+03  EK= 0.22242E+02 SP= -.29E+01 SK= 0.70E+00
Information: wavefunction orthogonal band  233  0.8861
Information: wavefunction orthogonal band  232  0.8975
Information: wavefunction orthogonal band  233  0.8796
Information: wavefunction orthogonal band  233  0.8779
Information: wavefunction orthogonal band  232  0.8991
Information: wavefunction orthogonal band  231  0.8794
 bond charge predicted
 prediction of wavefunctions
 -----------------------------------------------------------------------------
|                                                                             |
|           W    W    AA    RRRRR   N    N  II  N    N   GGGG   !!!           |
|           W    W   A  A   R    R  NN   N  II  NN   N  G    G  !!!           |
|           W    W  A    A  R    R  N N  N  II  N N  N  G       !!!           |
|           W WW W  AAAAAA  RRRRR   N  N N  II  N  N N  G  GGG   !            |
|           WW  WW  A    A  R   R   N   NN  II  N   NN  G    G                |
|           W    W  A    A  R    R  N    N  II  N    N   GGGG   !!!           |
|                                                                             |
|     Tetrahedron method does not include variations of the Fermi             |
|     occupations, so forces and stress will be inaccurate. We suggest        |
|     using a different smearing scheme ISMEAR = 1 or 2 for metals in         |
|     relaxations.                                                            |
|                                                                             |
 -----------------------------------------------------------------------------

       N       E                     dE             d eps       ncg     rms          rms(c)
DAV:   1    -0.778599888314E+03    0.21008E+01   -0.20795E-02  5805   0.960E-01    0.380E-02
RMM:   2    -0.778600678061E+03   -0.78975E-03   -0.77609E-03  3728   0.165E-01    0.172E-02
RMM:   3    -0.778600818957E+03   -0.14090E-03   -0.12626E-03  3691   0.649E-02    0.133E-02
RMM:   4    -0.778600848052E+03   -0.29096E-04   -0.23452E-04  2447   0.270E-02
   12 T=  1459. E= -.76062520E+03 F= -.77860085E+03 E0= -.77860085E+03  EK= 0.20931E+02 SP= -.41E+01 SK= 0.11E+01
Information: wavefunction orthogonal band  232  0.8601
Information: wavefunction orthogonal band  231  0.8990
Information: wavefunction orthogonal band  231  0.8960
 bond charge predicted
 prediction of wavefunctions
 -----------------------------------------------------------------------------
|                                                                             |
|           W    W    AA    RRRRR   N    N  II  N    N   GGGG   !!!           |
|           W    W   A  A   R    R  NN   N  II  NN   N  G    G  !!!           |
|           W    W  A    A  R    R  N N  N  II  N N  N  G       !!!           |
|           W WW W  AAAAAA  RRRRR   N  N N  II  N  N N  G  GGG   !            |
|           WW  WW  A    A  R   R   N   NN  II  N   NN  G    G                |
|           W    W  A    A  R    R  N    N  II  N    N   GGGG   !!!           |
|                                                                             |
|     Tetrahedron method does not include variations of the Fermi             |
|     occupations, so forces and stress will be inaccurate. We suggest        |
|     using a different smearing scheme ISMEAR = 1 or 2 for metals in         |
|     relaxations.                                                            |
|                                                                             |
 -----------------------------------------------------------------------------

       N       E                     dE             d eps       ncg     rms          rms(c)
DAV:   1    -0.776529049486E+03    0.20718E+01   -0.19034E-02  5796   0.905E-01    0.325E-02
RMM:   2    -0.776529644225E+03   -0.59474E-03   -0.68332E-03  3728   0.153E-01    0.188E-02
RMM:   3    -0.776529756548E+03   -0.11232E-03   -0.11195E-03  3643   0.608E-02    0.149E-02
RMM:   4    -0.776529786544E+03   -0.29996E-04   -0.22082E-04  2436   0.258E-02
   13 T=  1379. E= -.76062261E+03 F= -.77652979E+03 E0= -.77652979E+03  EK= 0.19790E+02 SP= -.56E+01 SK= 0.17E+01
Information: wavefunction orthogonal band  230  0.8919
Information: wavefunction orthogonal band  232  0.8968
Information: wavefunction orthogonal band  233  0.8869
Information: wavefunction orthogonal band  232  0.8635
Information: wavefunction orthogonal band  233  0.8926
 bond charge predicted
 prediction of wavefunctions
 -----------------------------------------------------------------------------
|                                                                             |
|           W    W    AA    RRRRR   N    N  II  N    N   GGGG   !!!           |
|           W    W   A  A   R    R  NN   N  II  NN   N  G    G  !!!           |
|           W    W  A    A  R    R  N N  N  II  N N  N  G       !!!           |
|           W WW W  AAAAAA  RRRRR   N  N N  II  N  N N  G  GGG   !            |
|           WW  WW  A    A  R   R   N   NN  II  N   NN  G    G                |
|           W    W  A    A  R    R  N    N  II  N    N   GGGG   !!!           |
|                                                                             |
|     Tetrahedron method does not include variations of the Fermi             |
|     occupations, so forces and stress will be inaccurate. We suggest        |
|     using a different smearing scheme ISMEAR = 1 or 2 for metals in         |
|     relaxations.                                                            |
|                                                                             |
 -----------------------------------------------------------------------------

       N       E                     dE             d eps       ncg     rms          rms(c)
DAV:   1    -0.774526801131E+03    0.20030E+01   -0.18928E-02  5787   0.857E-01    0.458E-02
RMM:   2    -0.774527320012E+03   -0.51888E-03   -0.59643E-03  3728   0.143E-01    0.187E-02
RMM:   3    -0.774527439891E+03   -0.11988E-03   -0.98482E-04  3591   0.567E-02    0.123E-02
RMM:   4    -0.774527466846E+03   -0.26955E-04   -0.19309E-04  2345   0.241E-02
   14 T=  1315. E= -.76062407E+03 F= -.77452747E+03 E0= -.77452747E+03  EK= 0.18862E+02 SP= -.75E+01 SK= 0.25E+01
Information: wavefunction orthogonal band  231  0.8962
Information: wavefunction orthogonal band  232  0.8690
Information: wavefunction orthogonal band  233  0.8653
 bond charge predicted
 prediction of wavefunctions
 -----------------------------------------------------------------------------
|                                                                             |
|           W    W    AA    RRRRR   N    N  II  N    N   GGGG   !!!           |
|           W    W   A  A   R    R  NN   N  II  NN   N  G    G  !!!           |
|           W    W  A    A  R    R  N N  N  II  N N  N  G       !!!           |
|           W WW W  AAAAAA  RRRRR   N  N N  II  N  N N  G  GGG   !            |
|           WW  WW  A    A  R   R   N   NN  II  N   NN  G    G                |
|           W    W  A    A  R    R  N    N  II  N    N   GGGG   !!!           |
|                                                                             |
|     Tetrahedron method does not include variations of the Fermi             |
|     occupations, so forces and stress will be inaccurate. We suggest        |
|     using a different smearing scheme ISMEAR = 1 or 2 for metals in         |
|     relaxations.                                                            |
|                                                                             |
 -----------------------------------------------------------------------------

       N       E                     dE             d eps       ncg     rms          rms(c)
DAV:   1    -0.772625944694E+03    0.19015E+01   -0.14355E-02  6012   0.815E-01    0.579E-02
RMM:   2    -0.772626535240E+03   -0.59055E-03   -0.54459E-03  3728   0.135E-01    0.216E-02
RMM:   3    -0.772626658924E+03   -0.12368E-03   -0.91895E-04  3607   0.544E-02    0.141E-02
RMM:   4    -0.772626685717E+03   -0.26793E-04   -0.18081E-04  2320   0.233E-02
   15 T=  1268. E= -.76062877E+03 F= -.77262669E+03 E0= -.77262669E+03  EK= 0.18188E+02 SP= -.97E+01 SK= 0.35E+01
Information: wavefunction orthogonal band  233  0.8961
 bond charge predicted
 prediction of wavefunctions
 -----------------------------------------------------------------------------
|                                                                             |
|           W    W    AA    RRRRR   N    N  II  N    N   GGGG   !!!           |
|           W    W   A  A   R    R  NN   N  II  NN   N  G    G  !!!           |
|           W    W  A    A  R    R  N N  N  II  N N  N  G       !!!           |
|           W WW W  AAAAAA  RRRRR   N  N N  II  N  N N  G  GGG   !            |
|           WW  WW  A    A  R   R   N   NN  II  N   NN  G    G                |
|           W    W  A    A  R    R  N    N  II  N    N   GGGG   !!!           |
|                                                                             |
|     Tetrahedron method does not include variations of the Fermi             |
|     occupations, so forces and stress will be inaccurate. We suggest        |
|     using a different smearing scheme ISMEAR = 1 or 2 for metals in         |
|     relaxations.                                                            |
|                                                                             |
 -----------------------------------------------------------------------------

       N       E                     dE             d eps       ncg     rms          rms(c)
DAV:   1    -0.770855207038E+03    0.17715E+01   -0.15450E-02  5763   0.784E-01    0.347E-02
RMM:   2    -0.770855420414E+03   -0.21338E-03   -0.49779E-03  3728   0.130E-01    0.151E-02
RMM:   3    -0.770855512742E+03   -0.92327E-04   -0.85195E-04  3556   0.518E-02
   16 T=  1241. E= -.76063606E+03 F= -.77085551E+03 E0= -.77085551E+03  EK= 0.17809E+02 SP= -.12E+02 SK= 0.47E+01
Information: wavefunction orthogonal band  232  0.8837
Information: wavefunction orthogonal band  232  0.8852
Information: wavefunction orthogonal band  232  0.8500
Information: wavefunction orthogonal band  233  0.8771
 bond charge predicted
 prediction of wavefunctions
 -----------------------------------------------------------------------------
|                                                                             |
|           W    W    AA    RRRRR   N    N  II  N    N   GGGG   !!!           |
|           W    W   A  A   R    R  NN   N  II  NN   N  G    G  !!!           |
|           W    W  A    A  R    R  N N  N  II  N N  N  G       !!!           |
|           W WW W  AAAAAA  RRRRR   N  N N  II  N  N N  G  GGG   !            |
|           WW  WW  A    A  R   R   N   NN  II  N   NN  G    G                |
|           W    W  A    A  R    R  N    N  II  N    N   GGGG   !!!           |
|                                                                             |
|     Tetrahedron method does not include variations of the Fermi             |
|     occupations, so forces and stress will be inaccurate. We suggest        |
|     using a different smearing scheme ISMEAR = 1 or 2 for metals in         |
|     relaxations.                                                            |
|                                                                             |
 -----------------------------------------------------------------------------

       N       E                     dE             d eps       ncg     rms          rms(c)
DAV:   1    -0.769235771986E+03    0.16196E+01   -0.15573E-02  5979   0.771E-01    0.239E-02
RMM:   2    -0.769236289832E+03   -0.51785E-03   -0.51683E-03  3730   0.140E-01    0.206E-02
RMM:   3    -0.769236385980E+03   -0.96149E-04   -0.90800E-04  3611   0.565E-02
   17 T=  1238. E= -.76064537E+03 F= -.76923639E+03 E0= -.76923639E+03  EK= 0.17769E+02 SP= -.15E+02 SK= 0.61E+01
Information: wavefunction orthogonal band  233  0.8866
Information: wavefunction orthogonal band  233  0.8404
 bond charge predicted
 prediction of wavefunctions
 -----------------------------------------------------------------------------
|                                                                             |
|           W    W    AA    RRRRR   N    N  II  N    N   GGGG   !!!           |
|           W    W   A  A   R    R  NN   N  II  NN   N  G    G  !!!           |
|           W    W  A    A  R    R  N N  N  II  N N  N  G       !!!           |
|           W WW W  AAAAAA  RRRRR   N  N N  II  N  N N  G  GGG   !            |
|           WW  WW  A    A  R   R   N   NN  II  N   NN  G    G                |
|           W    W  A    A  R    R  N    N  II  N    N   GGGG   !!!           |
|                                                                             |
|     Tetrahedron method does not include variations of the Fermi             |
|     occupations, so forces and stress will be inaccurate. We suggest        |
|     using a different smearing scheme ISMEAR = 1 or 2 for metals in         |
|     relaxations.                                                            |
|                                                                             |
 -----------------------------------------------------------------------------

       N       E                     dE             d eps       ncg     rms          rms(c)
DAV:   1    -0.767783983488E+03    0.14523E+01   -0.15605E-02  5724   0.771E-01    0.177E-02
RMM:   2    -0.767784482258E+03   -0.49877E-03   -0.51041E-03  3730   0.133E-01    0.183E-02
RMM:   3    -0.767784585665E+03   -0.10341E-03   -0.88338E-04  3572   0.548E-02    0.161E-02
RMM:   4    -0.767784605975E+03   -0.20310E-04   -0.17219E-04  2292   0.233E-02
   18 T=  1263. E= -.76065612E+03 F= -.76778461E+03 E0= -.76778461E+03  EK= 0.18116E+02 SP= -.19E+02 SK= 0.76E+01
Information: wavefunction orthogonal band  233  0.8837
Information: wavefunction orthogonal band  233  0.8383
Information: wavefunction orthogonal band  233  0.8767
Information: wavefunction orthogonal band  233  0.8852
 bond charge predicted
 prediction of wavefunctions
 -----------------------------------------------------------------------------
|                                                                             |
|           W    W    AA    RRRRR   N    N  II  N    N   GGGG   !!!           |
|           W    W   A  A   R    R  NN   N  II  NN   N  G    G  !!!           |
|           W    W  A    A  R    R  N N  N  II  N N  N  G       !!!           |
|           W WW W  AAAAAA  RRRRR   N  N N  II  N  N N  G  GGG   !            |
|           WW  WW  A    A  R   R   N   NN  II  N   NN  G    G                |
|           W    W  A    A  R    R  N    N  II  N    N   GGGG   !!!           |
|                                                                             |
|     Tetrahedron method does not include variations of the Fermi             |
|     occupations, so forces and stress will be inaccurate. We suggest        |
|     using a different smearing scheme ISMEAR = 1 or 2 for metals in         |
|     relaxations.                                                            |
|                                                                             |
 -----------------------------------------------------------------------------

       N       E                     dE             d eps       ncg     rms          rms(c)
DAV:   1    -0.766506786056E+03    0.12778E+01   -0.14432E-02  5875   0.791E-01    0.454E-02
RMM:   2    -0.766507288317E+03   -0.50226E-03   -0.51166E-03  3729   0.126E-01    0.169E-02
RMM:   3    -0.766507390324E+03   -0.10201E-03   -0.90492E-04  3619   0.521E-02    0.687E-03
RMM:   4    -0.766507408347E+03   -0.18023E-04   -0.16362E-04  2315   0.218E-02
   19 T=  1317. E= -.76066727E+03 F= -.76650741E+03 E0= -.76650741E+03  EK= 0.18902E+02 SP= -.22E+02 SK= 0.93E+01
Information: wavefunction orthogonal band  231  0.8848
 bond charge predicted
 prediction of wavefunctions
 -----------------------------------------------------------------------------
|                                                                             |
|           W    W    AA    RRRRR   N    N  II  N    N   GGGG   !!!           |
|           W    W   A  A   R    R  NN   N  II  NN   N  G    G  !!!           |
|           W    W  A    A  R    R  N N  N  II  N N  N  G       !!!           |
|           W WW W  AAAAAA  RRRRR   N  N N  II  N  N N  G  GGG   !            |
|           WW  WW  A    A  R   R   N   NN  II  N   NN  G    G                |
|           W    W  A    A  R    R  N    N  II  N    N   GGGG   !!!           |
|                                                                             |
|     Tetrahedron method does not include variations of the Fermi             |
|     occupations, so forces and stress will be inaccurate. We suggest        |
|     using a different smearing scheme ISMEAR = 1 or 2 for metals in         |
|     relaxations.                                                            |
|                                                                             |
 -----------------------------------------------------------------------------

       N       E                     dE             d eps       ncg     rms          rms(c)
DAV:   1    -0.765402609592E+03    0.11048E+01   -0.17228E-02  5714   0.830E-01    0.212E-02
RMM:   2    -0.765403181219E+03   -0.57163E-03   -0.57925E-03  3728   0.141E-01    0.133E-02
RMM:   3    -0.765403283387E+03   -0.10217E-03   -0.98849E-04  3663   0.568E-02    0.132E-02
RMM:   4    -0.765403300886E+03   -0.17500E-04   -0.19073E-04  2336   0.242E-02
   20 T=  1407. E= -.76067791E+03 F= -.76540330E+03 E0= -.76540330E+03  EK= 0.20184E+02 SP= -.26E+02 SK= 0.11E+02
Information: wavefunction orthogonal band  229  0.8973
Information: wavefunction orthogonal band  231  0.8958
Information: wavefunction orthogonal band  232  0.8967
Information: wavefunction orthogonal band  233  0.8463
Information: wavefunction orthogonal band  232  0.8968
 bond charge predicted
 prediction of wavefunctions
 -----------------------------------------------------------------------------
|                                                                             |
|           W    W    AA    RRRRR   N    N  II  N    N   GGGG   !!!           |
|           W    W   A  A   R    R  NN   N  II  NN   N  G    G  !!!           |
|           W    W  A    A  R    R  N N  N  II  N N  N  G       !!!           |
|           W WW W  AAAAAA  RRRRR   N  N N  II  N  N N  G  GGG   !            |
|           WW  WW  A    A  R   R   N   NN  II  N   NN  G    G                |
|           W    W  A    A  R    R  N    N  II  N    N   GGGG   !!!           |
|                                                                             |
|     Tetrahedron method does not include variations of the Fermi             |
|     occupations, so forces and stress will be inaccurate. We suggest        |
|     using a different smearing scheme ISMEAR = 1 or 2 for metals in         |
|     relaxations.                                                            |
|                                                                             |
 -----------------------------------------------------------------------------

       N       E                     dE             d eps       ncg     rms          rms(c)
DAV:   1    -0.764460104657E+03    0.94318E+00   -0.20114E-02  5828   0.891E-01    0.241E-02
RMM:   2    -0.764460773211E+03   -0.66855E-03   -0.68077E-03  3728   0.150E-01    0.264E-02
RMM:   3    -0.764460895224E+03   -0.12201E-03   -0.11806E-03  3717   0.608E-02    0.240E-02
RMM:   4    -0.764460909720E+03   -0.14496E-04   -0.21911E-04  2430   0.255E-02
   21 T=  1535. E= -.76068740E+03 F= -.76446091E+03 E0= -.76446091E+03  EK= 0.22023E+02 SP= -.31E+02 SK= 0.13E+02
Information: wavefunction orthogonal band  230  0.8824
Information: wavefunction orthogonal band  232  0.8974
Information: wavefunction orthogonal band  233  0.8704
Information: wavefunction orthogonal band  233  0.8897
 bond charge predicted
 prediction of wavefunctions
 -----------------------------------------------------------------------------
|                                                                             |
|           W    W    AA    RRRRR   N    N  II  N    N   GGGG   !!!           |
|           W    W   A  A   R    R  NN   N  II  NN   N  G    G  !!!           |
|           W    W  A    A  R    R  N N  N  II  N N  N  G       !!!           |
|           W WW W  AAAAAA  RRRRR   N  N N  II  N  N N  G  GGG   !            |
|           WW  WW  A    A  R   R   N   NN  II  N   NN  G    G                |
|           W    W  A    A  R    R  N    N  II  N    N   GGGG   !!!           |
|                                                                             |
|     Tetrahedron method does not include variations of the Fermi             |
|     occupations, so forces and stress will be inaccurate. We suggest        |
|     using a different smearing scheme ISMEAR = 1 or 2 for metals in         |
|     relaxations.                                                            |
|                                                                             |
 -----------------------------------------------------------------------------

       N       E                     dE             d eps       ncg     rms          rms(c)
DAV:   1    -0.763657028577E+03    0.80387E+00   -0.24121E-02  5654   0.973E-01    0.614E-02
RMM:   2    -0.763657860373E+03   -0.83180E-03   -0.84020E-03  3728   0.167E-01    0.222E-02
RMM:   3    -0.763657999618E+03   -0.13925E-03   -0.15073E-03  3808   0.689E-02    0.788E-03
RMM:   4    -0.763658019369E+03   -0.19751E-04   -0.28422E-04  2610   0.289E-02
   22 T=  1706. E= -.76069539E+03 F= -.76365802E+03 E0= -.76365802E+03  EK= 0.24479E+02 SP= -.36E+02 SK= 0.14E+02
Information: wavefunction orthogonal band  230  0.8363
Information: wavefunction orthogonal band  232  0.8651
Information: wavefunction orthogonal band  229  0.8363
Information: wavefunction orthogonal band  233  0.8799
Information: wavefunction orthogonal band  233  0.8758
 bond charge predicted
 prediction of wavefunctions
 -----------------------------------------------------------------------------
|                                                                             |
|           W    W    AA    RRRRR   N    N  II  N    N   GGGG   !!!           |
|           W    W   A  A   R    R  NN   N  II  NN   N  G    G  !!!           |
|           W    W  A    A  R    R  N N  N  II  N N  N  G       !!!           |
|           W WW W  AAAAAA  RRRRR   N  N N  II  N  N N  G  GGG   !            |
|           WW  WW  A    A  R   R   N   NN  II  N   NN  G    G                |
|           W    W  A    A  R    R  N    N  II  N    N   GGGG   !!!           |
|                                                                             |
|     Tetrahedron method does not include variations of the Fermi             |
|     occupations, so forces and stress will be inaccurate. We suggest        |
|     using a different smearing scheme ISMEAR = 1 or 2 for metals in         |
|     relaxations.                                                            |
|                                                                             |
 -----------------------------------------------------------------------------

       N       E                     dE             d eps       ncg     rms          rms(c)
DAV:   1    -0.762959669242E+03    0.69833E+00   -0.24264E-02  5926   0.107E+00    0.298E-02
RMM:   2    -0.762960599653E+03   -0.93041E-03   -0.92676E-03  3728   0.181E-01    0.191E-02
RMM:   3    -0.762960744748E+03   -0.14509E-03   -0.15233E-03  3797   0.723E-02    0.195E-02
RMM:   4    -0.762960774811E+03   -0.30062E-04   -0.30584E-04  2656   0.307E-02
   23 T=  1924. E= -.76070195E+03 F= -.76296077E+03 E0= -.76296077E+03  EK= 0.27600E+02 SP= -.40E+02 SK= 0.15E+02
Information: wavefunction orthogonal band  231  0.8838
Information: wavefunction orthogonal band  233  0.8890
Information: wavefunction orthogonal band  233  0.8995
Information: wavefunction orthogonal band  231  0.8872
 bond charge predicted
 prediction of wavefunctions
 -----------------------------------------------------------------------------
|                                                                             |
|           W    W    AA    RRRRR   N    N  II  N    N   GGGG   !!!           |
|           W    W   A  A   R    R  NN   N  II  NN   N  G    G  !!!           |
|           W    W  A    A  R    R  N N  N  II  N N  N  G       !!!           |
|           W WW W  AAAAAA  RRRRR   N  N N  II  N  N N  G  GGG   !            |
|           WW  WW  A    A  R   R   N   NN  II  N   NN  G    G                |
|           W    W  A    A  R    R  N    N  II  N    N   GGGG   !!!           |
|                                                                             |
|     Tetrahedron method does not include variations of the Fermi             |
|     occupations, so forces and stress will be inaccurate. We suggest        |
|     using a different smearing scheme ISMEAR = 1 or 2 for metals in         |
|     relaxations.                                                            |
|                                                                             |
 -----------------------------------------------------------------------------

       N       E                     dE             d eps       ncg     rms          rms(c)
DAV:   1    -0.762322245919E+03    0.63850E+00   -0.22430E-02  6238   0.117E+00    0.412E-02
RMM:   2    -0.762323117386E+03   -0.87147E-03   -0.95502E-03  3729   0.188E-01    0.458E-02
RMM:   3    -0.762323270701E+03   -0.15332E-03   -0.16366E-03  3833   0.745E-02    0.407E-02
RMM:   4    -0.762323275138E+03   -0.44364E-05   -0.33393E-04  2755   0.318E-02
   24 T=  2189. E= -.76070810E+03 F= -.76232328E+03 E0= -.76232328E+03  EK= 0.31415E+02 SP= -.46E+02 SK= 0.16E+02
 bond charge predicted
 prediction of wavefunctions
 -----------------------------------------------------------------------------
|                                                                             |
|           W    W    AA    RRRRR   N    N  II  N    N   GGGG   !!!           |
|           W    W   A  A   R    R  NN   N  II  NN   N  G    G  !!!           |
|           W    W  A    A  R    R  N N  N  II  N N  N  G       !!!           |
|           W WW W  AAAAAA  RRRRR   N  N N  II  N  N N  G  GGG   !            |
|           WW  WW  A    A  R   R   N   NN  II  N   NN  G    G                |
|           W    W  A    A  R    R  N    N  II  N    N   GGGG   !!!           |
|                                                                             |
|     Tetrahedron method does not include variations of the Fermi             |
|     occupations, so forces and stress will be inaccurate. We suggest        |
|     using a different smearing scheme ISMEAR = 1 or 2 for metals in         |
|     relaxations.                                                            |
|                                                                             |
 -----------------------------------------------------------------------------

       N       E                     dE             d eps       ncg     rms          rms(c)
DAV:   1    -0.761686147390E+03    0.63712E+00   -0.29046E-02  6092   0.129E+00    0.102E-01
RMM:   2    -0.761687327177E+03   -0.11798E-02   -0.12410E-02  3728   0.218E-01    0.348E-02
RMM:   3    -0.761687479283E+03   -0.15211E-03   -0.20191E-03  3779   0.862E-02    0.109E-02
RMM:   4    -0.761687513133E+03   -0.33850E-04   -0.40934E-04  2964   0.366E-02
   25 T=  2502. E= -.76071515E+03 F= -.76168751E+03 E0= -.76168751E+03  EK= 0.35904E+02 SP= -.51E+02 SK= 0.16E+02
Information: wavefunction orthogonal band  233  0.8835
Information: wavefunction orthogonal band  232  0.8799
Information: wavefunction orthogonal band  233  0.8482
Information: wavefunction orthogonal band  231  0.8949
Information: wavefunction orthogonal band  231  0.8736
Information: wavefunction orthogonal band  230  0.8834
Information: wavefunction orthogonal band  233  0.8732
 bond charge predicted
 prediction of wavefunctions
 -----------------------------------------------------------------------------
|                                                                             |
|           W    W    AA    RRRRR   N    N  II  N    N   GGGG   !!!           |
|           W    W   A  A   R    R  NN   N  II  NN   N  G    G  !!!           |
|           W    W  A    A  R    R  N N  N  II  N N  N  G       !!!           |
|           W WW W  AAAAAA  RRRRR   N  N N  II  N  N N  G  GGG   !            |
|           WW  WW  A    A  R   R   N   NN  II  N   NN  G    G                |
|           W    W  A    A  R    R  N    N  II  N    N   GGGG   !!!           |
|                                                                             |
|     Tetrahedron method does not include variations of the Fermi             |
|     occupations, so forces and stress will be inaccurate. We suggest        |
|     using a different smearing scheme ISMEAR = 1 or 2 for metals in         |
|     relaxations.                                                            |
|                                                                             |
 -----------------------------------------------------------------------------

       N       E                     dE             d eps       ncg     rms          rms(c)
DAV:   1    -0.760983071888E+03    0.70441E+00   -0.29478E-02  6237   0.142E+00    0.506E-02
RMM:   2    -0.760984584900E+03   -0.15130E-02   -0.15136E-02  3728   0.238E-01    0.266E-02
RMM:   3    -0.760984827658E+03   -0.24276E-03   -0.25626E-03  3863   0.936E-02    0.250E-02
RMM:   4    -0.760984867235E+03   -0.39577E-04   -0.50050E-04  3139   0.387E-02
   26 T=  2856. E= -.76072449E+03 F= -.76098487E+03 E0= -.76098487E+03  EK= 0.40982E+02 SP= -.56E+02 SK= 0.15E+02
Information: wavefunction orthogonal band  232  0.8390
Information: wavefunction orthogonal band  233  0.8525
Information: wavefunction orthogonal band  229  0.8717
Information: wavefunction orthogonal band  233  0.8426
 bond charge predicted
 prediction of wavefunctions
 -----------------------------------------------------------------------------
|                                                                             |
|           W    W    AA    RRRRR   N    N  II  N    N   GGGG   !!!           |
|           W    W   A  A   R    R  NN   N  II  NN   N  G    G  !!!           |
|           W    W  A    A  R    R  N N  N  II  N N  N  G       !!!           |
|           W WW W  AAAAAA  RRRRR   N  N N  II  N  N N  G  GGG   !            |
|           WW  WW  A    A  R   R   N   NN  II  N   NN  G    G                |
|           W    W  A    A  R    R  N    N  II  N    N   GGGG   !!!           |
|                                                                             |
|     Tetrahedron method does not include variations of the Fermi             |
|     occupations, so forces and stress will be inaccurate. We suggest        |
|     using a different smearing scheme ISMEAR = 1 or 2 for metals in         |
|     relaxations.                                                            |
|                                                                             |
 -----------------------------------------------------------------------------

       N       E                     dE             d eps       ncg     rms          rms(c)
DAV:   1    -0.760137020862E+03    0.84781E+00   -0.37475E-02  6199   0.153E+00    0.462E-02
RMM:   2    -0.760138712836E+03   -0.16920E-02   -0.17251E-02  3728   0.259E-01    0.422E-02
RMM:   3    -0.760138988737E+03   -0.27590E-03   -0.28868E-03  3853   0.100E-01    0.369E-02
RMM:   4    -0.760139028234E+03   -0.39497E-04   -0.55902E-04  3246   0.414E-02
   27 T=  3238. E= -.76073767E+03 F= -.76013903E+03 E0= -.76013903E+03  EK= 0.46465E+02 SP= -.61E+02 SK= 0.13E+02
Information: wavefunction orthogonal band  232  0.8919
Information: wavefunction orthogonal band  232  0.8783
 bond charge predicted
 prediction of wavefunctions
 -----------------------------------------------------------------------------
|                                                                             |
|           W    W    AA    RRRRR   N    N  II  N    N   GGGG   !!!           |
|           W    W   A  A   R    R  NN   N  II  NN   N  G    G  !!!           |
|           W    W  A    A  R    R  N N  N  II  N N  N  G       !!!           |
|           W WW W  AAAAAA  RRRRR   N  N N  II  N  N N  G  GGG   !            |
|           WW  WW  A    A  R   R   N   NN  II  N   NN  G    G                |
|           W    W  A    A  R    R  N    N  II  N    N   GGGG   !!!           |
|                                                                             |
|     Tetrahedron method does not include variations of the Fermi             |
|     occupations, so forces and stress will be inaccurate. We suggest        |
|     using a different smearing scheme ISMEAR = 1 or 2 for metals in         |
|     relaxations.                                                            |
|                                                                             |
 -----------------------------------------------------------------------------

       N       E                     dE             d eps       ncg     rms          rms(c)
DAV:   1    -0.759068417819E+03    0.10706E+01   -0.43801E-02  6189   0.165E+00    0.849E-02
RMM:   2    -0.759070374113E+03   -0.19563E-02   -0.19838E-02  3728   0.286E-01    0.373E-02
RMM:   3    -0.759070665137E+03   -0.29102E-03   -0.31026E-03  3797   0.109E-01    0.241E-02
RMM:   4    -0.759070709471E+03   -0.44334E-04   -0.63567E-04  3414   0.453E-02
   28 T=  3628. E= -.76075447E+03 F= -.75907071E+03 E0= -.75907071E+03  EK= 0.52053E+02 SP= -.65E+02 SK= 0.11E+02
Information: wavefunction orthogonal band  231  0.8921
Information: wavefunction orthogonal band  231  0.8434
Information: wavefunction orthogonal band  233  0.8817
Information: wavefunction orthogonal band  233  0.8614
Information: wavefunction orthogonal band  232  0.8716
 bond charge predicted
 prediction of wavefunctions
 -----------------------------------------------------------------------------
|                                                                             |
|           W    W    AA    RRRRR   N    N  II  N    N   GGGG   !!!           |
|           W    W   A  A   R    R  NN   N  II  NN   N  G    G  !!!           |
|           W    W  A    A  R    R  N N  N  II  N N  N  G       !!!           |
|           W WW W  AAAAAA  RRRRR   N  N N  II  N  N N  G  GGG   !            |
|           WW  WW  A    A  R   R   N   NN  II  N   NN  G    G                |
|           W    W  A    A  R    R  N    N  II  N    N   GGGG   !!!           |
|                                                                             |
|     Tetrahedron method does not include variations of the Fermi             |
|     occupations, so forces and stress will be inaccurate. We suggest        |
|     using a different smearing scheme ISMEAR = 1 or 2 for metals in         |
|     relaxations.                                                            |
|                                                                             |
 -----------------------------------------------------------------------------

       N       E                     dE             d eps       ncg     rms          rms(c)
DAV:   1    -0.757703382218E+03    0.13673E+01   -0.44050E-02  6429   0.176E+00    0.620E-02
RMM:   2    -0.757705602826E+03   -0.22206E-02   -0.22160E-02  3729   0.301E-01    0.407E-02
RMM:   3    -0.757705949887E+03   -0.34706E-03   -0.35633E-03  3842   0.113E-01    0.370E-02
RMM:   4    -0.757706005716E+03   -0.55829E-04   -0.71301E-04  3455   0.469E-02
   29 T=  3996. E= -.76077253E+03 F= -.75770601E+03 E0= -.75770601E+03  EK= 0.57332E+02 SP= -.69E+02 SK= 0.87E+01
Information: wavefunction orthogonal band  233  0.8291
Information: wavefunction orthogonal band  230  0.8948
Information: wavefunction orthogonal band  232  0.8999
 bond charge predicted
 prediction of wavefunctions
 -----------------------------------------------------------------------------
|                                                                             |
|           W    W    AA    RRRRR   N    N  II  N    N   GGGG   !!!           |
|           W    W   A  A   R    R  NN   N  II  NN   N  G    G  !!!           |
|           W    W  A    A  R    R  N N  N  II  N N  N  G       !!!           |
|           W WW W  AAAAAA  RRRRR   N  N N  II  N  N N  G  GGG   !            |
|           WW  WW  A    A  R   R   N   NN  II  N   NN  G    G                |
|           W    W  A    A  R    R  N    N  II  N    N   GGGG   !!!           |
|                                                                             |
|     Tetrahedron method does not include variations of the Fermi             |
|     occupations, so forces and stress will be inaccurate. We suggest        |
|     using a different smearing scheme ISMEAR = 1 or 2 for metals in         |
|     relaxations.                                                            |
|                                                                             |
 -----------------------------------------------------------------------------

       N       E                     dE             d eps       ncg     rms          rms(c)
DAV:   1    -0.755983960094E+03    0.17220E+01   -0.49674E-02  6463   0.184E+00    0.596E-02
RMM:   2    -0.755986239365E+03   -0.22793E-02   -0.23024E-02  3729   0.308E-01    0.517E-02
RMM:   3    -0.755986598288E+03   -0.35892E-03   -0.36133E-03  3842   0.115E-01    0.453E-02
RMM:   4    -0.755986656296E+03   -0.58008E-04   -0.74813E-04  3485   0.476E-02
   30 T=  4308. E= -.76078700E+03 F= -.75598666E+03 E0= -.75598666E+03  EK= 0.61806E+02 SP= -.73E+02 SK= 0.60E+01
Information: wavefunction orthogonal band  232  0.8779
Information: wavefunction orthogonal band  233  0.8949
 bond charge predicted
 prediction of wavefunctions
 -----------------------------------------------------------------------------
|                                                                             |
|           W    W    AA    RRRRR   N    N  II  N    N   GGGG   !!!           |
|           W    W   A  A   R    R  NN   N  II  NN   N  G    G  !!!           |
|           W    W  A    A  R    R  N N  N  II  N N  N  G       !!!           |
|           W WW W  AAAAAA  RRRRR   N  N N  II  N  N N  G  GGG   !            |
|           WW  WW  A    A  R   R   N   NN  II  N   NN  G    G                |
|           W    W  A    A  R    R  N    N  II  N    N   GGGG   !!!           |
|                                                                             |
|     Tetrahedron method does not include variations of the Fermi             |
|     occupations, so forces and stress will be inaccurate. We suggest        |
|     using a different smearing scheme ISMEAR = 1 or 2 for metals in         |
|     relaxations.                                                            |
|                                                                             |
 -----------------------------------------------------------------------------

       N       E                     dE             d eps       ncg     rms          rms(c)
DAV:   1    -0.753883152923E+03    0.21034E+01   -0.53553E-02  6527   0.189E+00    0.109E-01
RMM:   2    -0.753885440675E+03   -0.22878E-02   -0.24556E-02  3729   0.316E-01    0.392E-02
RMM:   3    -0.753885807283E+03   -0.36661E-03   -0.39641E-03  3860   0.118E-01    0.250E-02
RMM:   4    -0.753885889422E+03   -0.82139E-04   -0.78722E-04  3524   0.487E-02
   31 T=  4529. E= -.76079406E+03 F= -.75388589E+03 E0= -.75388589E+03  EK= 0.64981E+02 SP= -.75E+02 SK= 0.35E+01
Information: wavefunction orthogonal band  233  0.7941
Information: wavefunction orthogonal band  232  0.8982
 bond charge predicted
 prediction of wavefunctions
 -----------------------------------------------------------------------------
|                                                                             |
|           W    W    AA    RRRRR   N    N  II  N    N   GGGG   !!!           |
|           W    W   A  A   R    R  NN   N  II  NN   N  G    G  !!!           |
|           W    W  A    A  R    R  N N  N  II  N N  N  G       !!!           |
|           W WW W  AAAAAA  RRRRR   N  N N  II  N  N N  G  GGG   !            |
|           WW  WW  A    A  R   R   N   NN  II  N   NN  G    G                |
|           W    W  A    A  R    R  N    N  II  N    N   GGGG   !!!           |
|                                                                             |
|     Tetrahedron method does not include variations of the Fermi             |
|     occupations, so forces and stress will be inaccurate. We suggest        |
|     using a different smearing scheme ISMEAR = 1 or 2 for metals in         |
|     relaxations.                                                            |
|                                                                             |
 -----------------------------------------------------------------------------

       N       E                     dE             d eps       ncg     rms          rms(c)
DAV:   1    -0.751412509515E+03    0.24733E+01   -0.64832E-02  6574   0.192E+00    0.893E-02
RMM:   2    -0.751414823778E+03   -0.23143E-02   -0.25840E-02  3728   0.326E-01    0.462E-02
RMM:   3    -0.751415275789E+03   -0.45201E-03   -0.38630E-03  3860   0.119E-01    0.389E-02
RMM:   4    -0.751415328291E+03   -0.52502E-04   -0.79451E-04  3547   0.491E-02
   32 T=  4632. E= -.76078883E+03 F= -.75141533E+03 E0= -.75141533E+03  EK= 0.66464E+02 SP= -.77E+02 SK= 0.16E+01
Information: wavefunction orthogonal band  230  0.8897
 bond charge predicted
 prediction of wavefunctions
 -----------------------------------------------------------------------------
|                                                                             |
|           W    W    AA    RRRRR   N    N  II  N    N   GGGG   !!!           |
|           W    W   A  A   R    R  NN   N  II  NN   N  G    G  !!!           |
|           W    W  A    A  R    R  N N  N  II  N N  N  G       !!!           |
|           W WW W  AAAAAA  RRRRR   N  N N  II  N  N N  G  GGG   !            |
|           WW  WW  A    A  R   R   N   NN  II  N   NN  G    G                |
|           W    W  A    A  R    R  N    N  II  N    N   GGGG   !!!           |
|                                                                             |
|     Tetrahedron method does not include variations of the Fermi             |
|     occupations, so forces and stress will be inaccurate. We suggest        |
|     using a different smearing scheme ISMEAR = 1 or 2 for metals in         |
|     relaxations.                                                            |
|                                                                             |
 -----------------------------------------------------------------------------

       N       E                     dE             d eps       ncg     rms          rms(c)
DAV:   1    -0.748627497141E+03    0.27878E+01   -0.78908E-02  6503   0.190E+00    0.127E-01
RMM:   2    -0.748630013819E+03   -0.25167E-02   -0.27367E-02  3729   0.338E-01    0.599E-02
RMM:   3    -0.748630385821E+03   -0.37200E-03   -0.41551E-03  3860   0.123E-01    0.423E-02
RMM:   4    -0.748630432005E+03   -0.46184E-04   -0.84101E-04  3566   0.505E-02
   33 T=  4605. E= -.76076789E+03 F= -.74863043E+03 E0= -.74863043E+03  EK= 0.66069E+02 SP= -.79E+02 SK= 0.38E+00
Information: wavefunction orthogonal band  233  0.8956
Information: wavefunction orthogonal band  233  0.8780
 bond charge predicted
 prediction of wavefunctions
 -----------------------------------------------------------------------------
|                                                                             |
|           W    W    AA    RRRRR   N    N  II  N    N   GGGG   !!!           |
|           W    W   A  A   R    R  NN   N  II  NN   N  G    G  !!!           |
|           W    W  A    A  R    R  N N  N  II  N N  N  G       !!!           |
|           W WW W  AAAAAA  RRRRR   N  N N  II  N  N N  G  GGG   !            |
|           WW  WW  A    A  R   R   N   NN  II  N   NN  G    G                |
|           W    W  A    A  R    R  N    N  II  N    N   GGGG   !!!           |
|                                                                             |
|     Tetrahedron method does not include variations of the Fermi             |
|     occupations, so forces and stress will be inaccurate. We suggest        |
|     using a different smearing scheme ISMEAR = 1 or 2 for metals in         |
|     relaxations.                                                            |
|                                                                             |
 -----------------------------------------------------------------------------

       N       E                     dE             d eps       ncg     rms          rms(c)
DAV:   1    -0.745623931675E+03    0.30065E+01   -0.66287E-02  6088   0.187E+00    0.149E-01
RMM:   2    -0.745626702399E+03   -0.27707E-02   -0.30738E-02  3728   0.359E-01    0.660E-02
RMM:   3    -0.745626868916E+03   -0.16652E-03   -0.44917E-03  3845   0.130E-01    0.446E-02
RMM:   4    -0.745627018490E+03   -0.14957E-03   -0.89797E-04  3647   0.526E-02    0.293E-02
RMM:   5    -0.745626958446E+03    0.60045E-04   -0.20824E-04  2429   0.252E-02
   34 T=  4451. E= -.76073054E+03 F= -.74562696E+03 E0= -.74562696E+03  EK= 0.63860E+02 SP= -.79E+02 SK= 0.17E-04
Information: wavefunction orthogonal band  233  0.8991
Information: wavefunction orthogonal band  229  0.8932
Information: wavefunction orthogonal band  231  0.8819
Information: wavefunction orthogonal band  233  0.8692
 bond charge predicted
 prediction of wavefunctions
 -----------------------------------------------------------------------------
|                                                                             |
|           W    W    AA    RRRRR   N    N  II  N    N   GGGG   !!!           |
|           W    W   A  A   R    R  NN   N  II  NN   N  G    G  !!!           |
|           W    W  A    A  R    R  N N  N  II  N N  N  G       !!!           |
|           W WW W  AAAAAA  RRRRR   N  N N  II  N  N N  G  GGG   !            |
|           WW  WW  A    A  R   R   N   NN  II  N   NN  G    G                |
|           W    W  A    A  R    R  N    N  II  N    N   GGGG   !!!           |
|                                                                             |
|     Tetrahedron method does not include variations of the Fermi             |
|     occupations, so forces and stress will be inaccurate. We suggest        |
|     using a different smearing scheme ISMEAR = 1 or 2 for metals in         |
|     relaxations.                                                            |
|                                                                             |
 -----------------------------------------------------------------------------

       N       E                     dE             d eps       ncg     rms          rms(c)
DAV:   1    -0.742533289558E+03    0.30937E+01   -0.63181E-02  6032   0.182E+00    0.134E-01
RMM:   2    -0.742536090350E+03   -0.28008E-02   -0.29882E-02  3728   0.355E-01    0.542E-02
RMM:   3    -0.742536422474E+03   -0.33212E-03   -0.44701E-03  3859   0.126E-01    0.366E-02
RMM:   4    -0.742536510149E+03   -0.87676E-04   -0.85726E-04  3581   0.497E-02
   35 T=  4192. E= -.76068088E+03 F= -.74253651E+03 E0= -.74253651E+03  EK= 0.60149E+02 SP= -.79E+02 SK= 0.30E+00
Information: wavefunction orthogonal band  228  0.8941
Information: wavefunction orthogonal band  232  0.8927
Information: wavefunction orthogonal band  233  0.8708
Information: wavefunction orthogonal band  231  0.8982
 bond charge predicted
 prediction of wavefunctions
 -----------------------------------------------------------------------------
|                                                                             |
|           W    W    AA    RRRRR   N    N  II  N    N   GGGG   !!!           |
|           W    W   A  A   R    R  NN   N  II  NN   N  G    G  !!!           |
|           W    W  A    A  R    R  N N  N  II  N N  N  G       !!!           |
|           W WW W  AAAAAA  RRRRR   N  N N  II  N  N N  G  GGG   !            |
|           WW  WW  A    A  R   R   N   NN  II  N   NN  G    G                |
|           W    W  A    A  R    R  N    N  II  N    N   GGGG   !!!           |
|                                                                             |
|     Tetrahedron method does not include variations of the Fermi             |
|     occupations, so forces and stress will be inaccurate. We suggest        |
|     using a different smearing scheme ISMEAR = 1 or 2 for metals in         |
|     relaxations.                                                            |
|                                                                             |
 -----------------------------------------------------------------------------

       N       E                     dE             d eps       ncg     rms          rms(c)
DAV:   1    -0.739503594827E+03    0.30328E+01   -0.62057E-02  6230   0.173E+00    0.154E-01
RMM:   2    -0.739504704491E+03   -0.11097E-02   -0.27799E-02  3728   0.354E-01    0.779E-02
RMM:   3    -0.739505350013E+03   -0.64552E-03   -0.40386E-03  3842   0.124E-01    0.516E-02
RMM:   4    -0.739505301656E+03    0.48356E-04   -0.80471E-04  3577   0.498E-02
   36 T=  3862. E= -.76062457E+03 F= -.73950530E+03 E0= -.73950530E+03  EK= 0.55408E+02 SP= -.78E+02 SK= 0.10E+01
Information: wavefunction orthogonal band  231  0.8427
Information: wavefunction orthogonal band  233  0.8833
 bond charge predicted
 prediction of wavefunctions
 -----------------------------------------------------------------------------
|                                                                             |
|           W    W    AA    RRRRR   N    N  II  N    N   GGGG   !!!           |
|           W    W   A  A   R    R  NN   N  II  NN   N  G    G  !!!           |
|           W    W  A    A  R    R  N N  N  II  N N  N  G       !!!           |
|           W WW W  AAAAAA  RRRRR   N  N N  II  N  N N  G  GGG   !            |
|           WW  WW  A    A  R   R   N   NN  II  N   NN  G    G                |
|           W    W  A    A  R    R  N    N  II  N    N   GGGG   !!!           |
|                                                                             |
|     Tetrahedron method does not include variations of the Fermi             |
|     occupations, so forces and stress will be inaccurate. We suggest        |
|     using a different smearing scheme ISMEAR = 1 or 2 for metals in         |
|     relaxations.                                                            |
|                                                                             |
 -----------------------------------------------------------------------------

       N       E                     dE             d eps       ncg     rms          rms(c)
DAV:   1    -0.736675028790E+03    0.28303E+01   -0.56903E-02  6406   0.164E+00    0.114E-01
RMM:   2    -0.736677385390E+03   -0.23566E-02   -0.25124E-02  3728   0.339E-01    0.498E-02
RMM:   3    -0.736677696799E+03   -0.31141E-03   -0.36115E-03  3827   0.118E-01    0.351E-02
RMM:   4    -0.736677725164E+03   -0.28365E-04   -0.71986E-04  3509   0.472E-02
   37 T=  3496. E= -.76057341E+03 F= -.73667773E+03 E0= -.73667773E+03  EK= 0.50160E+02 SP= -.76E+02 SK= 0.19E+01
Information: wavefunction orthogonal band  233  0.8575
Information: wavefunction orthogonal band  232  0.8926
Information: wavefunction orthogonal band  233  0.8641
Information: wavefunction orthogonal band  233  0.8721
Information: wavefunction orthogonal band  231  0.8834
Information: wavefunction orthogonal band  232  0.8847
 bond charge predicted
 prediction of wavefunctions
 -----------------------------------------------------------------------------
|                                                                             |
|           W    W    AA    RRRRR   N    N  II  N    N   GGGG   !!!           |
|           W    W   A  A   R    R  NN   N  II  NN   N  G    G  !!!           |
|           W    W  A    A  R    R  N N  N  II  N N  N  G       !!!           |
|           W WW W  AAAAAA  RRRRR   N  N N  II  N  N N  G  GGG   !            |
|           WW  WW  A    A  R   R   N   NN  II  N   NN  G    G                |
|           W    W  A    A  R    R  N    N  II  N    N   GGGG   !!!           |
|                                                                             |
|     Tetrahedron method does not include variations of the Fermi             |
|     occupations, so forces and stress will be inaccurate. We suggest        |
|     using a different smearing scheme ISMEAR = 1 or 2 for metals in         |
|     relaxations.                                                            |
|                                                                             |
 -----------------------------------------------------------------------------

       N       E                     dE             d eps       ncg     rms          rms(c)
DAV:   1    -0.734166789166E+03    0.25109E+01   -0.44527E-02  6390   0.154E+00    0.927E-02
RMM:   2    -0.734168781540E+03   -0.19924E-02   -0.20402E-02  3728   0.307E-01    0.485E-02
RMM:   3    -0.734168989124E+03   -0.20758E-03   -0.30691E-03  3868   0.107E-01    0.352E-02
RMM:   4    -0.734169046683E+03   -0.57559E-04   -0.57879E-04  3322   0.424E-02
   38 T=  3128. E= -.76053217E+03 F= -.73416905E+03 E0= -.73416905E+03  EK= 0.44877E+02 SP= -.74E+02 SK= 0.28E+01
Information: wavefunction orthogonal band  233  0.8967
Information: wavefunction orthogonal band  233  0.8812
Information: wavefunction orthogonal band  233  0.8819
 bond charge predicted
 prediction of wavefunctions
 -----------------------------------------------------------------------------
|                                                                             |
|           W    W    AA    RRRRR   N    N  II  N    N   GGGG   !!!           |
|           W    W   A  A   R    R  NN   N  II  NN   N  G    G  !!!           |
|           W    W  A    A  R    R  N N  N  II  N N  N  G       !!!           |
|           W WW W  AAAAAA  RRRRR   N  N N  II  N  N N  G  GGG   !            |
|           WW  WW  A    A  R   R   N   NN  II  N   NN  G    G                |
|           W    W  A    A  R    R  N    N  II  N    N   GGGG   !!!           |
|                                                                             |
|     Tetrahedron method does not include variations of the Fermi             |
|     occupations, so forces and stress will be inaccurate. We suggest        |
|     using a different smearing scheme ISMEAR = 1 or 2 for metals in         |
|     relaxations.                                                            |
|                                                                             |
 -----------------------------------------------------------------------------

       N       E                     dE             d eps       ncg     rms          rms(c)
DAV:   1    -0.732050024031E+03    0.21190E+01   -0.36827E-02  6552   0.144E+00    0.881E-02
RMM:   2    -0.732051719677E+03   -0.16956E-02   -0.17674E-02  3728   0.282E-01    0.403E-02
RMM:   3    -0.732051955277E+03   -0.23560E-03   -0.27849E-03  3898   0.100E-01    0.292E-02
RMM:   4    -0.732052012869E+03   -0.57592E-04   -0.51252E-04  3202   0.397E-02
   39 T=  2782. E= -.76049866E+03 F= -.73205201E+03 E0= -.73205201E+03  EK= 0.39919E+02 SP= -.72E+02 SK= 0.34E+01
Information: wavefunction orthogonal band  230  0.8490
Information: wavefunction orthogonal band  231  0.8969
[...]
|     relaxations.                                                            |
|                                                                             |
 -----------------------------------------------------------------------------

       N       E                     dE             d eps       ncg     rms          rms(c)
DAV:   1    -0.751783217601E+03   -0.30086E+00   -0.21280E-02  6476   0.134E+00    0.583E-02
RMM:   2    -0.751784197605E+03   -0.98000E-03   -0.10431E-02  3728   0.193E-01    0.277E-02
RMM:   3    -0.751784371204E+03   -0.17360E-03   -0.18267E-03  3898   0.776E-02    0.192E-02
RMM:   4    -0.751784402222E+03   -0.31018E-04   -0.34728E-04  2804   0.325E-02
  291 T=  2331. E= -.76049077E+03 F= -.75178440E+03 E0= -.75178440E+03  EK= 0.33447E+02 SP= -.42E+02 SK= 0.26E-04
Information: wavefunction orthogonal band  232  0.8880
Information: wavefunction orthogonal band  233  0.8650
 bond charge predicted
 prediction of wavefunctions
 -----------------------------------------------------------------------------
|                                                                             |
|           W    W    AA    RRRRR   N    N  II  N    N   GGGG   !!!           |
|           W    W   A  A   R    R  NN   N  II  NN   N  G    G  !!!           |
|           W    W  A    A  R    R  N N  N  II  N N  N  G       !!!           |
|           W WW W  AAAAAA  RRRRR   N  N N  II  N  N N  G  GGG   !            |
|           WW  WW  A    A  R   R   N   NN  II  N   NN  G    G                |
|           W    W  A    A  R    R  N    N  II  N    N   GGGG   !!!           |
|                                                                             |
|     Tetrahedron method does not include variations of the Fermi             |
|     occupations, so forces and stress will be inaccurate. We suggest        |
|     using a different smearing scheme ISMEAR = 1 or 2 for metals in         |
|     relaxations.                                                            |
|                                                                             |
 -----------------------------------------------------------------------------

       N       E                     dE             d eps       ncg     rms          rms(c)
DAV:   1    -0.752068640164E+03   -0.28427E+00   -0.24233E-02  6468   0.135E+00    0.897E-02
RMM:   2    -0.752069260175E+03   -0.62001E-03   -0.11296E-02  3729   0.197E-01    0.417E-02
RMM:   3    -0.752069528667E+03   -0.26849E-03   -0.18914E-03  3870   0.797E-02    0.267E-02
RMM:   4    -0.752069530160E+03   -0.14936E-05   -0.37968E-04  2915   0.339E-02
  292 T=  2350. E= -.76049175E+03 F= -.75206953E+03 E0= -.75206953E+03  EK= 0.33723E+02 SP= -.42E+02 SK= 0.88E-04
Information: wavefunction orthogonal band  232  0.8977
 bond charge predicted
 prediction of wavefunctions
 -----------------------------------------------------------------------------
|                                                                             |
|           W    W    AA    RRRRR   N    N  II  N    N   GGGG   !!!           |
|           W    W   A  A   R    R  NN   N  II  NN   N  G    G  !!!           |
|           W    W  A    A  R    R  N N  N  II  N N  N  G       !!!           |
|           W WW W  AAAAAA  RRRRR   N  N N  II  N  N N  G  GGG   !            |
|           WW  WW  A    A  R   R   N   NN  II  N   NN  G    G                |
|           W    W  A    A  R    R  N    N  II  N    N   GGGG   !!!           |
|                                                                             |
|     Tetrahedron method does not include variations of the Fermi             |
|     occupations, so forces and stress will be inaccurate. We suggest        |
|     using a different smearing scheme ISMEAR = 1 or 2 for metals in         |
|     relaxations.                                                            |
|                                                                             |
 -----------------------------------------------------------------------------

       N       E                     dE             d eps       ncg     rms          rms(c)
DAV:   1    -0.752327496798E+03   -0.25797E+00   -0.27877E-02  6349   0.136E+00    0.627E-02
RMM:   2    -0.752328523024E+03   -0.10262E-02   -0.11854E-02  3729   0.201E-01    0.272E-02
RMM:   3    -0.752328694470E+03   -0.17145E-03   -0.20420E-03  3879   0.818E-02    0.191E-02
RMM:   4    -0.752328737786E+03   -0.43316E-04   -0.39440E-04  2906   0.343E-02
  293 T=  2367. E= -.76049238E+03 F= -.75232874E+03 E0= -.75232874E+03  EK= 0.33965E+02 SP= -.42E+02 SK= 0.35E-03
Information: wavefunction orthogonal band  231  0.8960
Information: wavefunction orthogonal band  231  0.8250
Information: wavefunction orthogonal band  233  0.8994
Information: wavefunction orthogonal band  230  0.8781
 bond charge predicted
 prediction of wavefunctions
 -----------------------------------------------------------------------------
|                                                                             |
|           W    W    AA    RRRRR   N    N  II  N    N   GGGG   !!!           |
|           W    W   A  A   R    R  NN   N  II  NN   N  G    G  !!!           |
|           W    W  A    A  R    R  N N  N  II  N N  N  G       !!!           |
|           W WW W  AAAAAA  RRRRR   N  N N  II  N  N N  G  GGG   !            |
|           WW  WW  A    A  R   R   N   NN  II  N   NN  G    G                |
|           W    W  A    A  R    R  N    N  II  N    N   GGGG   !!!           |
|                                                                             |
|     Tetrahedron method does not include variations of the Fermi             |
|     occupations, so forces and stress will be inaccurate. We suggest        |
|     using a different smearing scheme ISMEAR = 1 or 2 for metals in         |
|     relaxations.                                                            |
|                                                                             |
 -----------------------------------------------------------------------------

       N       E                     dE             d eps       ncg     rms          rms(c)
DAV:   1    -0.752550875316E+03   -0.22218E+00   -0.30507E-02  6317   0.137E+00    0.539E-02
RMM:   2    -0.752552213415E+03   -0.13381E-02   -0.12158E-02  3729   0.204E-01    0.292E-02
RMM:   3    -0.752552356102E+03   -0.14269E-03   -0.20898E-03  3898   0.824E-02    0.211E-02
RMM:   4    -0.752552402709E+03   -0.46606E-04   -0.39511E-04  2889   0.342E-02
  294 T=  2381. E= -.76049311E+03 F= -.75255240E+03 E0= -.75255240E+03  EK= 0.34156E+02 SP= -.42E+02 SK= 0.10E-02
Information: wavefunction orthogonal band  232  0.8856
Information: wavefunction orthogonal band  233  0.8736
Information: wavefunction orthogonal band  231  0.8660
Information: wavefunction orthogonal band  233  0.8944
 bond charge predicted
 prediction of wavefunctions
 -----------------------------------------------------------------------------
|                                                                             |
|           W    W    AA    RRRRR   N    N  II  N    N   GGGG   !!!           |
|           W    W   A  A   R    R  NN   N  II  NN   N  G    G  !!!           |
|           W    W  A    A  R    R  N N  N  II  N N  N  G       !!!           |
|           W WW W  AAAAAA  RRRRR   N  N N  II  N  N N  G  GGG   !            |
|           WW  WW  A    A  R   R   N   NN  II  N   NN  G    G                |
|           W    W  A    A  R    R  N    N  II  N    N   GGGG   !!!           |
|                                                                             |
|     Tetrahedron method does not include variations of the Fermi             |
|     occupations, so forces and stress will be inaccurate. We suggest        |
|     using a different smearing scheme ISMEAR = 1 or 2 for metals in         |
|     relaxations.                                                            |
|                                                                             |
 -----------------------------------------------------------------------------

       N       E                     dE             d eps       ncg     rms          rms(c)
DAV:   1    -0.752729839880E+03   -0.17748E+00   -0.27598E-02  6518   0.137E+00    0.430E-02
RMM:   2    -0.752730934098E+03   -0.10942E-02   -0.11482E-02  3729   0.200E-01    0.245E-02
RMM:   3    -0.752731143623E+03   -0.20953E-03   -0.19841E-03  3893   0.809E-02    0.195E-02
RMM:   4    -0.752731179843E+03   -0.36220E-04   -0.37190E-04  2889   0.336E-02
  295 T=  2389. E= -.76049352E+03 F= -.75273118E+03 E0= -.75273118E+03  EK= 0.34281E+02 SP= -.42E+02 SK= 0.24E-02
Information: wavefunction orthogonal band  231  0.8786
Information: wavefunction orthogonal band  232  0.8809
 bond charge predicted
 prediction of wavefunctions
 -----------------------------------------------------------------------------
|                                                                             |
|           W    W    AA    RRRRR   N    N  II  N    N   GGGG   !!!           |
|           W    W   A  A   R    R  NN   N  II  NN   N  G    G  !!!           |
|           W    W  A    A  R    R  N N  N  II  N N  N  G       !!!           |
|           W WW W  AAAAAA  RRRRR   N  N N  II  N  N N  G  GGG   !            |
|           WW  WW  A    A  R   R   N   NN  II  N   NN  G    G                |
|           W    W  A    A  R    R  N    N  II  N    N   GGGG   !!!           |
|                                                                             |
|     Tetrahedron method does not include variations of the Fermi             |
|     occupations, so forces and stress will be inaccurate. We suggest        |
|     using a different smearing scheme ISMEAR = 1 or 2 for metals in         |
|     relaxations.                                                            |
|                                                                             |
 -----------------------------------------------------------------------------

       N       E                     dE             d eps       ncg     rms          rms(c)
DAV:   1    -0.752855840637E+03   -0.12470E+00   -0.26446E-02  6581   0.137E+00    0.438E-02
RMM:   2    -0.752856956597E+03   -0.11160E-02   -0.11580E-02  3728   0.200E-01    0.257E-02
RMM:   3    -0.752857170378E+03   -0.21378E-03   -0.20021E-03  3885   0.813E-02    0.209E-02
RMM:   4    -0.752857202403E+03   -0.32025E-04   -0.37060E-04  2896   0.337E-02
  296 T=  2393. E= -.76049294E+03 F= -.75285720E+03 E0= -.75285720E+03  EK= 0.34332E+02 SP= -.42E+02 SK= 0.45E-02
Information: wavefunction orthogonal band  233  0.8777
Information: wavefunction orthogonal band  233  0.8770
 bond charge predicted
 prediction of wavefunctions
 -----------------------------------------------------------------------------
|                                                                             |
|           W    W    AA    RRRRR   N    N  II  N    N   GGGG   !!!           |
|           W    W   A  A   R    R  NN   N  II  NN   N  G    G  !!!           |
|           W    W  A    A  R    R  N N  N  II  N N  N  G       !!!           |
|           W WW W  AAAAAA  RRRRR   N  N N  II  N  N N  G  GGG   !            |
|           WW  WW  A    A  R   R   N   NN  II  N   NN  G    G                |
|           W    W  A    A  R    R  N    N  II  N    N   GGGG   !!!           |
|                                                                             |
|     Tetrahedron method does not include variations of the Fermi             |
|     occupations, so forces and stress will be inaccurate. We suggest        |
|     using a different smearing scheme ISMEAR = 1 or 2 for metals in         |
|     relaxations.                                                            |
|                                                                             |
 -----------------------------------------------------------------------------

       N       E                     dE             d eps       ncg     rms          rms(c)
DAV:   1    -0.752923610428E+03   -0.66440E-01   -0.25248E-02  6596   0.137E+00    0.418E-02
RMM:   2    -0.752924619366E+03   -0.10089E-02   -0.10825E-02  3728   0.196E-01    0.253E-02
RMM:   3    -0.752924823659E+03   -0.20429E-03   -0.18823E-03  3902   0.790E-02    0.207E-02
RMM:   4    -0.752924861503E+03   -0.37844E-04   -0.35559E-04  2842   0.328E-02
  297 T=  2391. E= -.76049106E+03 F= -.75292486E+03 E0= -.75292486E+03  EK= 0.34301E+02 SP= -.42E+02 SK= 0.73E-02
Information: wavefunction orthogonal band  233  0.8766
Information: wavefunction orthogonal band  232  0.8628
Information: wavefunction orthogonal band  231  0.8741
 bond charge predicted
 prediction of wavefunctions
 -----------------------------------------------------------------------------
|                                                                             |
|           W    W    AA    RRRRR   N    N  II  N    N   GGGG   !!!           |
|           W    W   A  A   R    R  NN   N  II  NN   N  G    G  !!!           |
|           W    W  A    A  R    R  N N  N  II  N N  N  G       !!!           |
|           W WW W  AAAAAA  RRRRR   N  N N  II  N  N N  G  GGG   !            |
|           WW  WW  A    A  R   R   N   NN  II  N   NN  G    G                |
|           W    W  A    A  R    R  N    N  II  N    N   GGGG   !!!           |
|                                                                             |
|     Tetrahedron method does not include variations of the Fermi             |
|     occupations, so forces and stress will be inaccurate. We suggest        |
|     using a different smearing scheme ISMEAR = 1 or 2 for metals in         |
|     relaxations.                                                            |
|                                                                             |
 -----------------------------------------------------------------------------

       N       E                     dE             d eps       ncg     rms          rms(c)
DAV:   1    -0.752929907797E+03   -0.50841E-02   -0.25076E-02  6623   0.137E+00    0.494E-02
RMM:   2    -0.752930889001E+03   -0.98120E-03   -0.11089E-02  3728   0.195E-01    0.238E-02
RMM:   3    -0.752931113402E+03   -0.22440E-03   -0.19867E-03  3927   0.799E-02    0.188E-02
RMM:   4    -0.752931151098E+03   -0.37696E-04   -0.35419E-04  2872   0.328E-02
  298 T=  2383. E= -.76048788E+03 F= -.75293115E+03 E0= -.75293115E+03  EK= 0.34186E+02 SP= -.42E+02 SK= 0.10E-01
Information: wavefunction orthogonal band  233  0.8642
Information: wavefunction orthogonal band  233  0.8899
 bond charge predicted
 prediction of wavefunctions
 -----------------------------------------------------------------------------
|                                                                             |
|           W    W    AA    RRRRR   N    N  II  N    N   GGGG   !!!           |
|           W    W   A  A   R    R  NN   N  II  NN   N  G    G  !!!           |
|           W    W  A    A  R    R  N N  N  II  N N  N  G       !!!           |
|           W WW W  AAAAAA  RRRRR   N  N N  II  N  N N  G  GGG   !            |
|           WW  WW  A    A  R   R   N   NN  II  N   NN  G    G                |
|           W    W  A    A  R    R  N    N  II  N    N   GGGG   !!!           |
|                                                                             |
|     Tetrahedron method does not include variations of the Fermi             |
|     occupations, so forces and stress will be inaccurate. We suggest        |
|     using a different smearing scheme ISMEAR = 1 or 2 for metals in         |
|     relaxations.                                                            |
|                                                                             |
 -----------------------------------------------------------------------------

       N       E                     dE             d eps       ncg     rms          rms(c)
DAV:   1    -0.752874831576E+03    0.56282E-01   -0.28376E-02  6413   0.136E+00    0.496E-02
RMM:   2    -0.752875787546E+03   -0.95597E-03   -0.11382E-02  3728   0.200E-01    0.247E-02
RMM:   3    -0.752876034293E+03   -0.24675E-03   -0.19768E-03  3907   0.809E-02    0.198E-02
RMM:   4    -0.752876072072E+03   -0.37779E-04   -0.36598E-04  2879   0.334E-02
  299 T=  2369. E= -.76048408E+03 F= -.75287607E+03 E0= -.75287607E+03  EK= 0.33990E+02 SP= -.42E+02 SK= 0.14E-01
Information: wavefunction orthogonal band  233  0.8698
Information: wavefunction orthogonal band  230  0.8987
 bond charge predicted
 prediction of wavefunctions
 -----------------------------------------------------------------------------
|                                                                             |
|           W    W    AA    RRRRR   N    N  II  N    N   GGGG   !!!           |
|           W    W   A  A   R    R  NN   N  II  NN   N  G    G  !!!           |
|           W    W  A    A  R    R  N N  N  II  N N  N  G       !!!           |
|           W WW W  AAAAAA  RRRRR   N  N N  II  N  N N  G  GGG   !            |
|           WW  WW  A    A  R   R   N   NN  II  N   NN  G    G                |
|           W    W  A    A  R    R  N    N  II  N    N   GGGG   !!!           |
|                                                                             |
|     Tetrahedron method does not include variations of the Fermi             |
|     occupations, so forces and stress will be inaccurate. We suggest        |
|     using a different smearing scheme ISMEAR = 1 or 2 for metals in         |
|     relaxations.                                                            |
|                                                                             |
 -----------------------------------------------------------------------------

       N       E                     dE             d eps       ncg     rms          rms(c)
DAV:   1    -0.752760402572E+03    0.11563E+00   -0.27741E-02  6359   0.135E+00    0.525E-02
RMM:   2    -0.752761253485E+03   -0.85091E-03   -0.11129E-02  3728   0.201E-01    0.246E-02
RMM:   3    -0.752761510897E+03   -0.25741E-03   -0.18784E-03  3880   0.803E-02    0.192E-02
RMM:   4    -0.752761552795E+03   -0.41898E-04   -0.35680E-04  2850   0.334E-02
  300 T=  2350. E= -.76047960E+03 F= -.75276155E+03 E0= -.75276155E+03  EK= 0.33721E+02 SP= -.41E+02 SK= 0.16E-01
Information: wavefunction orthogonal band  232  0.8908
Information: wavefunction orthogonal band  232  0.8931
Information: wavefunction orthogonal band  232  0.8832
 bond charge predicted
 prediction of wavefunctions
 wavefunctions rotated
 -----------------------------------------------------------------------------
|                                                                             |
|           W    W    AA    RRRRR   N    N  II  N    N   GGGG   !!!           |
|           W    W   A  A   R    R  NN   N  II  NN   N  G    G  !!!           |
|           W    W  A    A  R    R  N N  N  II  N N  N  G       !!!           |
|           W WW W  AAAAAA  RRRRR   N  N N  II  N  N N  G  GGG   !            |
|           WW  WW  A    A  R   R   N   NN  II  N   NN  G    G                |
|           W    W  A    A  R    R  N    N  II  N    N   GGGG   !!!           |
|                                                                             |
|     Tetrahedron method does not include variations of the Fermi             |
|     occupations, so forces and stress will be inaccurate. We suggest        |
|     using a different smearing scheme ISMEAR = 1 or 2 for metals in         |
|     relaxations.                                                            |
|                                                                             |
 -----------------------------------------------------------------------------

Warning: ieee_invalid is signaling
Warning: ieee_divide_by_zero is signaling
Warning: ieee_underflow is signaling
Warning: ieee_inexact is signaling
FORTRAN STOP
