unknown system                          
            1
     9.424964    0.072571    4.306976
     2.795979    9.000986    4.306977
     0.097743    0.072571   10.361971
   B    C 
    96    16
Direct configuration=     1
   0.16039500  0.40051500  0.40051500
   0.16039500  0.40051500  0.90051500
   0.16039500  0.90051500  0.40051500
   0.16039500  0.90051500  0.90051500
   0.66039500  0.40051500  0.40051500
   0.66039500  0.40051500  0.90051500
   0.66039500  0.90051500  0.40051500
   0.66039500  0.90051500  0.90051500
   0.40051500  0.40051500  0.16039500
   0.40051500  0.40051500  0.66039500
   0.40051500  0.90051500  0.16039500
   0.40051500  0.90051500  0.66039500
   0.90051500  0.40051500  0.16039500
   0.90051500  0.40051500  0.66039500
   0.90051500  0.90051500  0.16039500
   0.90051500  0.90051500  0.66039500
   0.40051500  0.16039500  0.40051500
   0.40051500  0.16039500  0.90051500
   0.40051500  0.66039500  0.40051500
   0.40051500  0.66039500  0.90051500
   0.90051500  0.16039500  0.40051500
   0.90051500  0.16039500  0.90051500
   0.90051500  0.66039500  0.40051500
   0.90051500  0.66039500  0.90051500
   0.33960500  0.09948500  0.09948500
   0.33960500  0.09948500  0.59948500
   0.33960500  0.59948500  0.09948500
   0.33960500  0.59948500  0.59948500
   0.83960500  0.09948500  0.09948500
   0.83960500  0.09948500  0.59948500
   0.83960500  0.59948500  0.09948500
   0.83960500  0.59948500  0.59948500
   0.09948500  0.09948500  0.33960500
   0.09948500  0.09948500  0.83960500
   0.09948500  0.59948500  0.33960500
   0.09948500  0.59948500  0.83960500
   0.59948500  0.09948500  0.33960500
   0.59948500  0.09948500  0.83960500
   0.59948500  0.59948500  0.33960500
   0.59948500  0.59948500  0.83960500
   0.09948500  0.33960500  0.09948500
   0.09948500  0.33960500  0.59948500
   0.09948500  0.83960500  0.09948500
   0.09948500  0.83960500  0.59948500
   0.59948500  0.33960500  0.09948500
   0.59948500  0.33960500  0.59948500
   0.59948500  0.83960500  0.09948500
   0.59948500  0.83960500  0.59948500
   0.33229300  0.00011500  0.00011500
   0.33229300  0.00011500  0.50011500
   0.33229300  0.50011500  0.00011500
   0.33229300  0.50011500  0.50011500
   0.83229300  0.00011500  0.00011500
   0.83229300  0.00011500  0.50011500
   0.83229300  0.50011500  0.00011500
   0.83229300  0.50011500  0.50011500
   0.00011500  0.00011500  0.33229300
   0.00011500  0.00011500  0.83229300
   0.00011500  0.50011500  0.33229300
   0.00011500  0.50011500  0.83229300
   0.50011500  0.00011500  0.33229300
   0.50011500  0.00011500  0.83229300
   0.50011500  0.50011500  0.33229300
   0.50011500  0.50011500  0.83229300
   0.00011500  0.33229300  0.00011500
   0.00011500  0.33229300  0.50011500
   0.00011500  0.83229300  0.00011500
   0.00011500  0.83229300  0.50011500
   0.50011500  0.33229300  0.00011500
   0.50011500  0.33229300  0.50011500
   0.50011500  0.83229300  0.00011500
   0.50011500  0.83229300  0.50011500
   0.16770700  0.99988500  0.99988500
   0.16770700  0.99988500  0.49988500
   0.16770700  0.49988500  0.99988500
   0.16770700  0.49988500  0.49988500
   0.66770700  0.99988500  0.99988500
   0.66770700  0.99988500  0.49988500
   0.66770700  0.49988500  0.99988500
   0.66770700  0.49988500  0.49988500
   0.99988500  0.99988500  0.16770700
   0.99988500  0.99988500  0.66770700
   0.99988500  0.49988500  0.16770700
   0.99988500  0.49988500  0.66770700
   0.49988500  0.99988500  0.16770700
   0.49988500  0.99988500  0.66770700
   0.49988500  0.49988500  0.16770700
   0.49988500  0.49988500  0.66770700
   0.99988500  0.16770700  0.99988500
   0.99988500  0.16770700  0.49988500
   0.99988500  0.66770700  0.99988500
   0.99988500  0.66770700  0.49988500
   0.49988500  0.16770700  0.99988500
   0.49988500  0.16770700  0.49988500
   0.49988500  0.66770700  0.99988500
   0.49988500  0.66770700  0.49988500
   0.31539700  0.31539700  0.31539700
   0.31539700  0.31539700  0.81539700
   0.31539700  0.81539700  0.31539700
   0.31539700  0.81539700  0.81539700
   0.81539700  0.31539700  0.31539700
   0.81539700  0.31539700  0.81539700
   0.81539700  0.81539700  0.31539700
   0.81539700  0.81539700  0.81539700
   0.18460300  0.18460300  0.18460300
   0.18460300  0.18460300  0.68460300
   0.18460300  0.68460300  0.18460300
   0.18460300  0.68460300  0.68460300
   0.68460300  0.18460300  0.18460300
   0.68460300  0.18460300  0.68460300
   0.68460300  0.68460300  0.18460300
   0.68460300  0.68460300  0.68460300
Direct configuration=     2
   0.16098273  0.40071964  0.39959548
   0.15921421  0.40125683  0.90007403
   0.16025615  0.90043318  0.39982144
   0.15989714  0.89919105  0.90106136
   0.66079946  0.40229312  0.39958169
   0.65952455  0.40229145  0.89995550
   0.65897947  0.90056643  0.40093116
   0.66123353  0.89963798  0.90032936
   0.40111815  0.40140051  0.16018449
   0.40040431  0.40033494  0.66060790
   0.40003199  0.90064661  0.15896703
   0.39995444  0.90237250  0.65948345
   0.90016769  0.40126518  0.16091588
   0.90037817  0.40006778  0.66154243
   0.90120267  0.89980421  0.15983442
   0.90021079  0.89980195  0.66043477
   0.40053326  0.15882409  0.40102723
   0.40094451  0.16059285  0.90041060
   0.40082866  0.65970640  0.40170839
   0.40114775  0.66009587  0.90048834
   0.89954750  0.16027790  0.40066722
   0.90065765  0.16103163  0.89959407
   0.89988422  0.66006286  0.40229095
   0.90101621  0.65994938  0.90008392
   0.34037362  0.09872602  0.09983605
   0.33976098  0.10031424  0.59885812
   0.34063769  0.60064771  0.09821850
   0.33844263  0.59957950  0.60093385
   0.83945263  0.09996883  0.10055375
   0.84052143  0.09932492  0.59970898
   0.83861624  0.59857124  0.10076182
   0.83901958  0.60017079  0.59946512
   0.10022037  0.09994933  0.34083389
   0.10034147  0.09876937  0.83938245
   0.09951926  0.60008271  0.33931523
   0.09906997  0.59755953  0.84013130
   0.59920208  0.09898068  0.33898500
   0.60046950  0.09760157  0.83979613
   0.59918115  0.60036245  0.33911530
   0.60062820  0.59934494  0.83952171
   0.09933482  0.33925528  0.09945973
   0.09915178  0.34009215  0.59994021
   0.09969598  0.83954276  0.09949774
   0.09968963  0.83938785  0.60018607
   0.59985076  0.33894988  0.09958727
   0.60073655  0.33938249  0.59901711
   0.59904701  0.83968197  0.10003961
   0.59948404  0.83946039  0.60014467
   0.33243269  0.99857448  0.00011978
   0.33321960  0.00066269  0.49899958
   0.33251566  0.49989099  0.00004516
   0.33331051  0.49913347  0.50097915
   0.83144528  0.99945572  0.00192826
   0.83174004  0.00093761  0.50014020
   0.83347088  0.49969269  0.99964943
   0.83310387  0.50085277  0.49992771
   0.00155783  0.99942416  0.33195257
   0.00027374  0.00089876  0.83289624
   0.00082372  0.49955263  0.33237327
   0.00051613  0.49998875  0.83182468
   0.49967959  0.00058954  0.33266469
   0.50001087  0.00112524  0.83307742
   0.50023084  0.49923820  0.33279269
   0.49981153  0.50025566  0.83236243
   0.00004419  0.33267679  0.00061624
   0.00078376  0.33312012  0.49914766
   0.00128413  0.83063818  0.00109433
   0.00113676  0.83173329  0.49976385
   0.50038722  0.33347589  0.99907466
   0.49966762  0.33209932  0.50032682
   0.49980858  0.83354977  0.99934574
   0.50116628  0.83229461  0.49960497
   0.16700684  0.99920150  0.00133123
   0.16806997  0.99984674  0.49926542
   0.16706005  0.50036444  0.99937288
   0.16694979  0.50088569  0.50028232
   0.66670754  0.99863610  0.00099592
   0.66906240  0.99892940  0.49901852
   0.66687375  0.49899645  0.99999135
   0.66645143  0.50080520  0.50090388
   0.99930970  0.00087689  0.16700653
   0.99974758  0.00030554  0.66678794
   0.99983610  0.49995983  0.16734271
   0.00020318  0.49998996  0.66758940
   0.49931744  0.99889011  0.16795068
   0.50127625  0.99990137  0.66629117
   0.49883324  0.49965514  0.16894804
   0.49991768  0.49933923  0.66847654
   0.99928461  0.16844232  0.99991356
   0.99872963  0.16850099  0.50047311
   0.00011473  0.66679772  0.99925966
   0.99976810  0.66823953  0.49923150
   0.50035709  0.16897007  0.99997093
   0.49936028  0.16816205  0.49971429
   0.49933153  0.66852086  0.99937955
   0.49981181  0.66721899  0.49999869
   0.31447711  0.31467935  0.31544619
   0.31638151  0.31497382  0.81606619
   0.31595422  0.81525955  0.31544505
   0.31484605  0.81423699  0.81501791
   0.81562283  0.31532145  0.31545341
   0.81695389  0.31446039  0.81447217
   0.81455991  0.81562247  0.31515266
   0.81484058  0.81619906  0.81489664
   0.18533687  0.18584448  0.18292994
   0.18400989  0.18470755  0.68460298
   0.18471312  0.68390189  0.18491888
   0.18404720  0.68526979  0.68425770
   0.68299875  0.18552440  0.18506975
   0.68462899  0.18436258  0.68466992
   0.68356230  0.68505710  0.18400695
   0.68421833  0.68491358  0.68481770
Direct configuration=     3
   0.16156519  0.40092523  0.39868180
   0.15804397  0.40198895  0.89963250
   0.16012047  0.90035088  0.39913012
   0.15940167  0.89786918  0.90160476
   0.66120320  0.40406402  0.39865266
   0.65866759  0.40405400  0.89939198
   0.65757331  0.90061455  0.40134164
   0.66206306  0.89876568  0.90014791
   0.40171477  0.40227951  0.15997834
   0.40029602  0.40015323  0.66082224
   0.39954872  0.90077399  0.15754795
   0.39939310  0.90421933  0.65857875
   0.89982159  0.40201015  0.16143542
   0.90024601  0.39962690  0.66267696
   0.90188469  0.89909422  0.15927941
   0.89990896  0.89909352  0.66046946
   0.40054711  0.15726449  0.40153283
   0.40137504  0.16078553  0.90031069
   0.40113896  0.65902213  0.40289700
   0.40177782  0.65979898  0.90045765
   0.89858574  0.16015874  0.40081823
   0.90080123  0.16165856  0.89868147
   0.89925330  0.65973784  0.40405535
   0.90151144  0.65950772  0.89965305
   0.34113922  0.09797266  0.10018311
   0.33991590  0.10114164  0.59823415
   0.34166411  0.60180697  0.09695989
   0.33728904  0.59967172  0.60237706
   0.83929730  0.10045380  0.10161981
   0.84143195  0.09916706  0.59993358
   0.83763126  0.59766297  0.10203119
   0.83843755  0.60085369  0.59944801
   0.10095634  0.10041818  0.34205073
   0.10119527  0.09805500  0.83916391
   0.09955291  0.60067684  0.33902982
   0.09865880  0.59564713  0.84064788
   0.59891761  0.09847910  0.33836958
   0.60145152  0.09572798  0.83998640
   0.59887656  0.60123650  0.33863049
   0.60176537  0.59920680  0.83944183
   0.09918423  0.33891283  0.09943080
   0.09882063  0.34057870  0.60039292
   0.09990758  0.83947762  0.09951377
   0.09989190  0.83917717  0.60088178
   0.60021064  0.33830549  0.09968587
   0.60198238  0.33916257  0.59855070
   0.59860831  0.83976081  0.10058987
   0.59948141  0.83931958  0.60080140
   0.33257256  0.99704129  0.00012349
   0.33414080  0.00120758  0.49788863
   0.33273800  0.49966854  0.99997557
   0.33432184  0.49815526  0.50184266
   0.83059888  0.99879930  0.00373755
   0.83119181  0.00175711  0.50016494
   0.83464067  0.49927063  0.99918594
   0.83390923  0.50158771  0.49974289
   0.00299704  0.99873808  0.33161290
   0.00043117  0.00167921  0.83349501
   0.00153031  0.49899407  0.33245172
   0.00091482  0.49986179  0.83135837
   0.49924526  0.00106072  0.33303239
   0.49990808  0.00213237  0.83385265
   0.50034632  0.49836486  0.33329276
   0.49950982  0.50039692  0.83243153
   0.99997299  0.33305784  0.00111657
   0.00145077  0.33394411  0.49818538
   0.00244941  0.82898596  0.00207082
   0.00215638  0.83117560  0.49941438
   0.50065884  0.33465662  0.99803799
   0.49922462  0.33190637  0.50053855
   0.49950417  0.83479915  0.99857727
   0.50221285  0.83229296  0.49909885
   0.16630859  0.99851938  0.00277175
   0.16843444  0.99980792  0.49864742
   0.16641486  0.50084172  0.99886258
   0.16619728  0.50188252  0.50067792
   0.66571416  0.99739002  0.00210468
   0.67041236  0.99797665  0.49815280
   0.66604726  0.49811114  0.00009887
   0.66520238  0.50172406  0.50191868
   0.99873640  0.00186530  0.16630906
   0.99961062  0.00072358  0.66587660
   0.99978687  0.50003455  0.16698168
   0.00051912  0.50009536  0.66747167
   0.49874975  0.99789803  0.16819667
   0.50266280  0.99991952  0.66488333
   0.49778464  0.49942603  0.17018451
   0.49994893  0.49879404  0.66924416
   0.99868564  0.16917664  0.99994101
   0.99757748  0.16929433  0.50105773
   0.00034251  0.66589125  0.99863719
   0.99965115  0.66877078  0.49858021
   0.50082807  0.17022564  0.00005493
   0.49883843  0.16861525  0.49954158
   0.49878124  0.66933528  0.99887408
   0.49973750  0.66673617  0.50011366
   0.31356723  0.31396194  0.31549010
   0.31735834  0.31455580  0.81673424
   0.31651120  0.81512033  0.31549237
   0.31429857  0.81308302  0.81463538
   0.81584642  0.31524832  0.31550990
   0.81849440  0.31353240  0.81355593
   0.81372486  0.81584484  0.31491157
   0.81429175  0.81698993  0.81439922
   0.18606852  0.18707540  0.18127060
   0.18342028  0.18481235  0.68460142
   0.18482528  0.68320625  0.18522919
   0.18348965  0.68592936  0.68392210
   0.68140504  0.18643682  0.18553486
   0.68465833  0.18411964  0.68473733
   0.68252462  0.68550838  0.18341395
   0.68383603  0.68522386  0.68503140
Direct configuration=     4
   0.16213768  0.40113334  0.39778005
   0.15689513  0.40270205  0.89919068
   0.15999189  0.90026827  0.39844327
   0.15891158  0.89655163  0.90214255
   0.66160649  0.40582142  0.39773227
   0.65783666  0.40578982  0.89882170
   0.65618675  0.90065661  0.40174103
   0.66287507  0.89790327  0.89997534
   0.40229898  0.40314622  0.15978085
   0.40019269  0.39996886  0.66103979
   0.39906527  0.90089328  0.15614716
   0.39883095  0.90604551  0.65768785
   0.89947829  0.40274544  0.16195252
   0.90012398  0.39919964  0.66378588
   0.90255615  0.89838609  0.15873596
   0.89961237  0.89839499  0.66049411
   0.40055275  0.15572842  0.40202547
   0.40180784  0.16096923  0.90021970
   0.40144280  0.65834717  0.40407641
   0.40240295  0.65950709  0.90041915
   0.89763522  0.16003656  0.40096719
   0.90094745  0.16226672  0.89778569
   0.89862276  0.65942744  0.40579707
   0.90199534  0.65907429  0.89922285
   0.34189785  0.09723005  0.10052224
   0.34006787  0.10196518  0.59761557
   0.34267728  0.60295885  0.09571665
   0.33615224  0.59975848  0.60380884
   0.83913536  0.10094059  0.10268046
   0.84232988  0.09901289  0.60015911
   0.83665293  0.59676489  0.10328560
   0.83786157  0.60153040  0.59943614
   0.10169273  0.10089490  0.34324430
   0.10204351  0.09734274  0.83895258
   0.09958475  0.60126334  0.33875278
   0.09825441  0.59376035  0.84114552
   0.59862979  0.09798264  0.33776228
   0.60242882  0.09387342  0.84017436
   0.59857007  0.60210333  0.33815508
   0.60289032  0.59907248  0.83936799
   0.09903222  0.33858417  0.09939439
   0.09849302  0.34106365  0.60084039
   0.10011995  0.83940607  0.09953598
   0.10008895  0.83897870  0.60156673
   0.60055832  0.33768217  0.09977656
   0.60321702  0.33894685  0.59808699
   0.59816789  0.83984230  0.10113139
   0.59947520  0.83918550  0.60145201
   0.33271237  0.99552207  0.00012426
   0.33505126  0.00174607  0.49678632
   0.33295907  0.49944897  0.99990622
   0.33532057  0.49718324  0.50270463
   0.82975480  0.99814809  0.00553874
   0.83065299  0.00257004  0.50018837
   0.83579444  0.49884879  0.99872642
   0.83470359  0.50231641  0.49956275
   0.00442863  0.99806093  0.33127412
   0.00058569  0.00245288  0.83408492
   0.00223237  0.49844268  0.33252621
   0.00130807  0.49973300  0.83089547
   0.49881270  0.00152445  0.33339266
   0.49980729  0.00313256  0.83461079
   0.50046062  0.49749752  0.33379391
   0.49921112  0.50053883  0.83250014
   0.99990054  0.33343330  0.00161454
   0.00211387  0.33476202  0.49723262
   0.00360688  0.82733818  0.00304162
   0.00317133  0.83062184  0.49906773
   0.50092887  0.33583369  0.99700789
   0.49878946  0.33171553  0.50074946
   0.49920351  0.83603407  0.99780951
   0.50324919  0.83228547  0.49859996
   0.16561418  0.99784046  0.00420160
   0.16880180  0.99976838  0.49803326
   0.16577385  0.50131497  0.99835617
   0.16545426  0.50287220  0.50107047
   0.66473277  0.99615001  0.00320969
   0.67175166  0.99702970  0.49728899
   0.66523431  0.49723246  0.00020907
   0.66396647  0.50264062  0.50292583
   0.99816738  0.00284716  0.16561793
   0.99947518  0.00113699  0.66498046
   0.99973732  0.50010960  0.16662748
   0.00083091  0.50020199  0.66735386
   0.49818228  0.99691193  0.16844698
   0.50404060  0.99994195  0.66348992
   0.49674265  0.49919906  0.17141196
   0.49997783  0.49825063  0.67000776
   0.99808984  0.16990908  0.99996673
   0.99643223  0.17008666  0.50163590
   0.00056685  0.66499054  0.99802083
   0.99953477  0.66929933  0.49793373
   0.50129734  0.17146628  0.00013595
   0.49832269  0.16906422  0.49936557
   0.49823787  0.67015060  0.99836891
   0.49966161  0.66626294  0.50023208
   0.31267677  0.31324495  0.31552365
   0.31832022  0.31414754  0.81740000
   0.31706764  0.81497738  0.31553830
   0.31375747  0.81194076  0.81424651
   0.81606569  0.31517960  0.31556659
   0.82000323  0.31262062  0.81265619
   0.81289358  0.81606125  0.31467682
   0.81375805  0.81775851  0.81390724
   0.18679671  0.18828616  0.17963723
   0.18283757  0.18491774  0.68459705
   0.18494179  0.68252149  0.18552842
   0.18292891  0.68657500  0.68360518
   0.67983237  0.18733122  0.18599724
   0.68469426  0.18387202  0.68480566
   0.68149295  0.68595414  0.18282682
   0.68345855  0.68553353  0.68524331
Direct configuration=     5
   0.16269614  0.40134555  0.39689567
   0.15577793  0.40338732  0.89874836
   0.15987451  0.90018582  0.39776220
   0.15842993  0.89524048  0.90267203
   0.66200995  0.40755999  0.39682376
   0.65704272  0.40748711  0.89824266
   0.65483017  0.90069017  0.40212384
   0.66366054  0.89705608  0.89981650
   0.40286494  0.40399518  0.15959594
   0.40009612  0.39978154  0.66126209
   0.39858189  0.90100094  0.15477335
   0.39826809  0.90784151  0.65681740
   0.89913885  0.40346723  0.16246591
   0.90001716  0.39879330  0.66485725
   0.90321229  0.89768056  0.15821024
   0.89932375  0.89771150  0.66050379
   0.40054658  0.15422839  0.40249861
   0.40224368  0.16114197  0.90014045
   0.40173683  0.65768688  0.40524180
   0.40302073  0.65922319  0.90036885
   0.89670044  0.15991176  0.40111247
   0.90109813  0.16284754  0.89691471
   0.89799299  0.65913946  0.40750485
   0.90246264  0.65865347  0.89879324
   0.34264566  0.09650254  0.10085131
   0.34021488  0.10278316  0.59700483
   0.34367021  0.60409963  0.09449617
   0.33503979  0.59983639  0.60522455
   0.83896304  0.10142993  0.10373345
   0.84320916  0.09886306  0.60038635
   0.83568379  0.59588138  0.10451854
   0.83729378  0.60219803  0.59943235
   0.10242929  0.10138166  0.34440451
   0.10288375  0.09663322  0.83875144
   0.09961368  0.60183836  0.33848782
   0.09785931  0.59191149  0.84161561
   0.59833704  0.09749348  0.33716615
   0.60340053  0.09204592  0.84035834
   0.59826075  0.60295933  0.33769304
   0.60399726  0.59894422  0.83930273
   0.09887791  0.33827438  0.09934822
   0.09817060  0.34154569  0.60128038
   0.10033323  0.83932471  0.09956714
   0.10027794  0.83879751  0.60223674
   0.60088761  0.33709017  0.09985485
   0.60443661  0.33873529  0.59762779
   0.59772455  0.83992666  0.10166033
   0.59946355  0.83906103  0.60209354
   0.33285104  0.99402220  0.00012009
   0.33594571  0.00227392  0.49569697
   0.33317762  0.49923366  0.99983706
   0.33630089  0.49621992  0.50356395
   0.82891312  0.99750416  0.00732818
   0.83012796  0.00337269  0.50020963
   0.83692485  0.49842695  0.99827248
   0.83548212  0.50303533  0.49938948
   0.00584855  0.99739637  0.33093586
   0.00073575  0.00321630  0.83466194
   0.00292754  0.49790165  0.33259477
   0.00169226  0.49960089  0.83043771
   0.49838260  0.00197649  0.33374184
   0.49970880  0.00412151  0.83534462
   0.50057242  0.49663817  0.33429738
   0.49891631  0.50068134  0.83256840
   0.99982537  0.33380027  0.00210848
   0.00277095  0.33557104  0.49629356
   0.00475287  0.82569601  0.00400418
   0.00417879  0.83007412  0.49872474
   0.50119637  0.33700556  0.99598711
   0.49836478  0.33152818  0.50095874
   0.49890837  0.83724774  0.99704198
   0.50426941  0.83226982  0.49811171
   0.16492577  0.99716657  0.00561622
   0.16917371  0.99972810  0.49742552
   0.16513989  0.50178282  0.99785554
   0.16472495  0.50385188  0.50145878
   0.66376934  0.99491946  0.00430973
   0.67307549  0.99609118  0.49642803
   0.66444120  0.49636373  0.00032348
   0.66274965  0.50355432  0.50392228
   0.99760488  0.00381962  0.16493668
   0.99934284  0.00154390  0.66410635
   0.99968789  0.50018611  0.16628290
   0.00113686  0.50031075  0.66723578
   0.49761560  0.99593499  0.16870362
   0.50540581  0.99997126  0.66211677
   0.49571075  0.49897582  0.17262608
   0.50000378  0.49771065  0.67076523
   0.99749886  0.17063882  0.99999030
   0.99529759  0.17087812  0.50220494
   0.00078656  0.66409852  0.99741373
   0.99941973  0.66982376  0.49729464
   0.50176502  0.17268518  0.00021352
   0.49781618  0.16950648  0.49918500
   0.49770522  0.67096748  0.99786407
   0.49958402  0.66580337  0.50035633
   0.31181444  0.31252809  0.31554189
   0.31926099  0.31375193  0.81806356
   0.31762300  0.81482855  0.31558292
   0.31322518  0.81081518  0.81384856
   0.81627894  0.31511619  0.31562455
   0.82146664  0.31173140  0.81177972
   0.81206753  0.81626893  0.31445106
   0.81324713  0.81849403  0.81342271
   0.18752132  0.18946921  0.17803935
   0.18226482  0.18502422  0.68458848
   0.18506521  0.68185272  0.18581104
   0.18236404  0.68720070  0.68331508
   0.67829079  0.18819855  0.18645629
   0.68473889  0.18361908  0.68487528
   0.68047038  0.68639183  0.18224821
   0.68308831  0.68584228  0.68545255
Direct configuration=     6
   0.16323686  0.40156344  0.39603367
   0.15470210  0.40403520  0.89830629
   0.15977261  0.90010354  0.39708819
   0.15795987  0.89393707  0.90319031
   0.66241445  0.40927463  0.39593047
   0.65629540  0.40913481  0.89765314
   0.65351365  0.90071293  0.40248463
   0.66441080  0.89622857  0.89967646
   0.40340740  0.40482132  0.15942654
   0.40000825  0.39959033  0.66149129
   0.39809866  0.90109296  0.15343547
   0.39770492  0.90959855  0.65597296
   0.89880461  0.40417118  0.16297500
   0.89993099  0.39841532  0.66587889
   0.90384882  0.89697800  0.15770796
   0.89904589  0.89704749  0.66049377
   0.40052558  0.15277653  0.40294596
   0.40268368  0.16130139  0.90007621
   0.40201811  0.65704544  0.40638936
   0.40362910  0.65895014  0.90030258
   0.89578554  0.15978424  0.40125301
   0.90125545  0.16339273  0.89607600
   0.89736464  0.65888121  0.40916805
   0.90290870  0.65824867  0.89836429
   0.34337893  0.09579485  0.10116785
   0.34035453  0.10359454  0.59640438
   0.34463598  0.60522598  0.09330569
   0.33395906  0.59990218  0.60661950
   0.83877616  0.10192289  0.10477721
   0.84406383  0.09871863  0.60061569
   0.83472577  0.59501687  0.10572374
   0.83673590  0.60285397  0.59943966
   0.10316549  0.10188095  0.34552223
   0.10371403  0.09592727  0.83856300
   0.09963857  0.60239837  0.33823868
   0.09747536  0.59011293  0.84205012
   0.59803787  0.09701399  0.33658372
   0.60436605  0.09025358  0.84053637
   0.59794717  0.60380154  0.33724829
   0.60508080  0.59882479  0.83924825
   0.09871984  0.33798946  0.09928938
   0.09785468  0.34202371  0.60171096
   0.10054764  0.83922982  0.09961027
   0.10045566  0.83863950  0.60288734
   0.60119245  0.33653946  0.09991630
   0.60563733  0.33852893  0.59717411
   0.59727669  0.84001470  0.10217275
   0.59944462  0.83894870  0.60272338
   0.33298702  0.99254693  0.00010897
   0.33681921  0.00278664  0.49462493
   0.33339270  0.49902396  0.99976809
   0.33725675  0.49526810  0.50441998
   0.82807364  0.99686939  0.00910292
   0.82962046  0.00416208  0.50022824
   0.83802520  0.49800510  0.99782604
   0.83624020  0.50374093  0.49922546
   0.00725333  0.99674820  0.33059735
   0.00088005  0.00396646  0.83522269
   0.00361372  0.49737395  0.33265534
   0.00206411  0.49946420  0.82998604
   0.49795568  0.00241259  0.33407659
   0.49961275  0.00509552  0.83604785
   0.50068081  0.49578864  0.33480439
   0.49862622  0.50082451  0.83263640
   0.99974630  0.33415620  0.00259700
   0.00342003  0.33636896  0.49537203
   0.00588412  0.82405999  0.00495648
   0.00517673  0.82953407  0.49838648
   0.50146036  0.33817157  0.99497797
   0.49795305  0.33134553  0.50116597
   0.49862087  0.83843384  0.99627398
   0.50526758  0.83224388  0.49763750
   0.16424532  0.99649944  0.00701153
   0.16955207  0.99968649  0.49682664
   0.16451581  0.50224351  0.99736215
   0.16401369  0.50481892  0.50184166
   0.66282950  0.99370119  0.00540356
   0.67437958  0.99516319  0.49557058
   0.66367349  0.49550791  0.00044368
   0.66155792  0.50446437  0.50490506
   0.99705086  0.00478007  0.16426858
   0.99921510  0.00194214  0.66326041
   0.99963874  0.50026479  0.16595101
   0.00143525  0.50042251  0.66711725
   0.49704976  0.99496964  0.16896890
   0.50675505  0.00001013  0.66076830
   0.49469190  0.49875776  0.17382339
   0.50002601  0.49717519  0.67151479
   0.99691413  0.17136486  0.00001136
   0.99417670  0.17166927  0.50276216
   0.00100036  0.66321763  0.99681865
   0.99930684  0.67034260  0.49666531
   0.50223111  0.17387600  0.00028709
   0.49732167  0.16993971  0.49899864
   0.49718711  0.67178663  0.99735910
   0.49950436  0.66536122  0.50048880
   0.31098807  0.31181133  0.31554049
   0.32017488  0.31337227  0.81872409
   0.31817672  0.81467214  0.31562557
   0.31270366  0.80971083  0.81343960
   0.81648430  0.31505951  0.31568412
   0.82287217  0.31087047  0.81093285
   0.81124792  0.81646579  0.31423699
   0.81276597  0.81918663  0.81294679
   0.18824315  0.19061685  0.17648543
   0.18170515  0.18513224  0.68457458
   0.18519827  0.68120490  0.18607178
   0.18179411  0.68780011  0.68305942
   0.67678987  0.18902998  0.18691219
   0.68479451  0.18335910  0.68494678
   0.67945968  0.68681829  0.18168044
   0.68272780  0.68614996  0.68565850
Direct configuration=     7
   0.16375649  0.40178851  0.39519814
   0.15367684  0.40463577  0.89786584
   0.15969077  0.90002123  0.39642233
   0.15750389  0.89264232  0.90369477
   0.66282162  0.41096058  0.39505533
   0.65560209  0.41072328  0.89705192
   0.65224658  0.90072289  0.40281806
   0.66511755  0.89542478  0.89956039
   0.40392128  0.40562016  0.15927510
   0.39993089  0.39939386  0.66173004
   0.39761568  0.90116545  0.15214191
   0.39714180  0.91130882  0.65515946
   0.89847692  0.40485290  0.16347938
   0.89987017  0.39807312  0.66683979
   0.90446188  0.89627847  0.15723451
   0.89878156  0.89640698  0.66045931
   0.40048698  0.15138470  0.40336138
   0.40312943  0.16144471  0.90003061
   0.40228375  0.65642660  0.40751595
   0.40422611  0.65869074  0.90021627
   0.89489412  0.15965377  0.40138801
   0.90142151  0.16389465  0.89527645
   0.89673806  0.65866015  0.41077647
   0.90332948  0.65786255  0.89793604
   0.34409433  0.09511147  0.10146916
   0.34048484  0.10439853  0.59581616
   0.34556828  0.60633498  0.09215187
   0.33291647  0.59995290  0.60798977
   0.83857095  0.10242029  0.10581068
   0.84488800  0.09858094  0.60084737
   0.83377996  0.59417558  0.10689570
   0.83618922  0.60349617  0.59946130
   0.10390088  0.10239550  0.34658919
   0.10453315  0.09522533  0.83838944
   0.09965850  0.60294032  0.33800865
   0.09710399  0.58837696  0.84244155
   0.59773107  0.09654617  0.33601701
   0.60532526  0.08850399  0.84070646
   0.59762799  0.60462778  0.33682403
   0.60613624  0.59871726  0.83920654
   0.09855637  0.33773542  0.09921483
   0.09754689  0.34249644  0.60213056
   0.10076337  0.83911797  0.09966815
   0.10061894  0.83851071  0.60351439
   0.60146722  0.33603956  0.09995635
   0.60681616  0.33832870  0.59672676
   0.59682238  0.84010724  0.10266499
   0.59941673  0.83885085  0.60333921
   0.33311832  0.99110103  0.00008880
   0.33766674  0.00327943  0.49357465
   0.33360322  0.49882125  0.99969923
   0.33818350  0.49433016  0.50527225
   0.82723513  0.99624530  0.01086098
   0.82913374  0.00493573  0.50024390
   0.83908962  0.49758323  0.99738890
   0.83697446  0.50442973  0.49907283
   0.00864004  0.99612001  0.33025730
   0.00101739  0.00470050  0.83576424
   0.00428909  0.49686235  0.33270594
   0.00242029  0.49932157  0.82954133
   0.49753275  0.00282843  0.33439340
   0.49951912  0.00605123  0.83671506
   0.50078498  0.49495036  0.33531638
   0.49834138  0.50096850  0.83270434
   0.99966214  0.33449870  0.00307892
   0.00405939  0.33715383  0.49447127
   0.00699781  0.82242971  0.00589705
   0.00616358  0.82900319  0.49805394
   0.50172000  0.33933122  0.99398243
   0.49755647  0.33116883  0.50137090
   0.49834319  0.83958652  0.99550439
   0.50623775  0.83220579  0.49718062
   0.16357502  0.99584051  0.00838413
   0.16993901  0.99964265  0.49623894
   0.16390420  0.50269526  0.99687720
   0.16332356  0.50577156  0.50221820
   0.66191876  0.99249758  0.00649014
   0.67566061  0.99424728  0.49471687
   0.66293629  0.49466772  0.00057129
   0.66039584  0.50537013  0.50587183
   0.99650710  0.00572628  0.16361685
   0.99909344  0.00232956  0.66244813
   0.99959008  0.50034642  0.16563423
   0.00172461  0.50053825  0.66699797
   0.49648434  0.99401778  0.16924533
   0.50808550  0.00006123  0.65944807
   0.49368874  0.49854640  0.17500107
   0.50004382  0.49664501  0.67225480
   0.99633692  0.17208660  0.00002975
   0.99307218  0.17246080  0.50330507
   0.00120712  0.66235004  0.99623803
   0.99919699  0.67085470  0.49604788
   0.50269571  0.17503305  0.00035618
   0.49684168  0.17036180  0.49880521
   0.49668731  0.67260936  0.99685312
   0.49942223  0.66493965  0.50063200
   0.31020469  0.31109422  0.31551547
   0.32105678  0.31301219  0.81938049
   0.31872841  0.81450663  0.31566563
   0.31219454  0.80863155  0.81301771
   0.81667984  0.31501126  0.31574574
   0.82420957  0.31004215  0.81012069
   0.81043562  0.81664995  0.31403700
   0.81232110  0.81982742  0.81248017
   0.18896371  0.19172189  0.17498304
   0.18116086  0.18524240  0.68455440
   0.18534371  0.68058242  0.18630569