 120 120   0   0
  0.7279435E+01  0.1014539E-08  0.1040844E-08  0.1040844E-08  0.5000000E-15
   1.0000000000000000E-004
  CAR 
 unknown system                          
     13.92824075    -12.17579181  301      5.07872907      1.00000000
    -12.176  0.0000E+00  0.0000E+00
    -12.089  0.0000E+00  0.0000E+00
    -12.002  0.0000E+00  0.0000E+00
    -11.915  0.0000E+00  0.0000E+00
    -11.828  0.0000E+00  0.0000E+00
    -11.741  0.0000E+00  0.0000E+00
    -11.654  0.0000E+00  0.0000E+00
    -11.567  0.0000E+00  0.0000E+00
    -11.480  0.0000E+00  0.0000E+00
    -11.393  0.0000E+00  0.0000E+00
    -11.306  0.0000E+00  0.0000E+00
    -11.219  0.0000E+00  0.0000E+00
    -11.132  0.0000E+00  0.0000E+00
    -11.045  0.0000E+00  0.0000E+00
    -10.958  0.5391E-03  0.5686E-05
    -10.871  0.7581E-02  0.2999E-03
    -10.784  0.2278E-01  0.1562E-02
    -10.697  0.1202E+00  0.8737E-02
    -10.610  0.1372E-01  0.1249E-01
    -10.523  0.3850E-02  0.1321E-01
    -10.436  0.9044E-01  0.1424E-01
    -10.349  0.1771E+00  0.3167E-01
    -10.261  0.1200E+00  0.4271E-01
    -10.174  0.2023E-01  0.5313E-01
    -10.087  0.0000E+00  0.5333E-01
    -10.000  0.0000E+00  0.5333E-01
     -9.913  0.0000E+00  0.5333E-01
     -9.826  0.0000E+00  0.5333E-01
     -9.739  0.0000E+00  0.5333E-01
     -9.652  0.0000E+00  0.5333E-01
     -9.565  0.0000E+00  0.5333E-01
     -9.478  0.0000E+00  0.5333E-01
     -9.391  0.0000E+00  0.5333E-01
     -9.304  0.0000E+00  0.5333E-01
     -9.217  0.0000E+00  0.5333E-01
     -9.130  0.0000E+00  0.5333E-01
     -9.043  0.0000E+00  0.5333E-01
     -8.956  0.1866E-02  0.5338E-01
     -8.869  0.1600E-01  0.5404E-01
     -8.782  0.4641E-01  0.5663E-01
     -8.695  0.1574E+00  0.6475E-01
     -8.608  0.1005E+00  0.7456E-01
     -8.521  0.4686E-01  0.8095E-01
     -8.434  0.7458E-01  0.8481E-01
     -8.347  0.6156E-01  0.9327E-01
     -8.260  0.8283E-01  0.1006E+00
     -8.173  0.3162E-01  0.1056E+00
     -8.086  0.6218E-03  0.1067E+00
     -7.999  0.3425E-01  0.1078E+00
     -7.912  0.6779E-01  0.1127E+00
     -7.825  0.4009E-01  0.1178E+00
     -7.738  0.2918E-01  0.1203E+00
     -7.651  0.1278E+00  0.1256E+00
     -7.564  0.9385E-01  0.1387E+00
     -7.477  0.3701E-01  0.1441E+00
     -7.390  0.1176E-01  0.1460E+00
     -7.303  0.2170E-01  0.1470E+00
     -7.216  0.1028E+00  0.1525E+00
     -7.129  0.3257E-01  0.1606E+00
     -7.042  0.2275E-01  0.1622E+00
     -6.955  0.3957E-01  0.1648E+00
     -6.868  0.5308E-01  0.1689E+00
     -6.781  0.9101E-01  0.1756E+00
     -6.694  0.7547E-01  0.1829E+00
     -6.607  0.1182E-01  0.1863E+00
     -6.520  0.3717E-01  0.1889E+00
     -6.433  0.4616E-01  0.1925E+00
     -6.346  0.5796E-01  0.1970E+00
     -6.259  0.6856E-01  0.2025E+00
     -6.172  0.4947E-01  0.2079E+00
     -6.085  0.3379E-01  0.2113E+00
     -5.998  0.6084E-02  0.2132E+00
     -5.911  0.0000E+00  0.2133E+00
     -5.824  0.2488E-01  0.2140E+00
     -5.737  0.9643E-01  0.2191E+00
     -5.650  0.4989E-01  0.2256E+00
     -5.563  0.3747E-01  0.2290E+00
     -5.476  0.9670E-01  0.2344E+00
     -5.389  0.1741E+00  0.2480E+00
     -5.302  0.2918E-01  0.2535E+00
     -5.215  0.7381E-01  0.2585E+00
     -5.128  0.1158E+00  0.2667E+00
     -5.041  0.9022E-01  0.2767E+00
     -4.954  0.3783E-01  0.2812E+00
     -4.867  0.9942E-01  0.2897E+00
     -4.780  0.3473E-01  0.2935E+00
     -4.693  0.5127E-01  0.2974E+00
     -4.606  0.5178E-01  0.3018E+00
     -4.519  0.7316E-01  0.3071E+00
     -4.432  0.5998E-01  0.3138E+00
     -4.345  0.2498E-01  0.3169E+00
     -4.258  0.1418E-01  0.3185E+00
     -4.171  0.7304E-02  0.3195E+00
     -4.084  0.2686E-02  0.3199E+00
     -3.997  0.3313E-03  0.3200E+00
     -3.910  0.0000E+00  0.3200E+00
     -3.823  0.1281E-03  0.3200E+00
     -3.735  0.1919E-01  0.3205E+00
     -3.648  0.2642E-01  0.3224E+00
     -3.561  0.3864E-01  0.3252E+00
     -3.474  0.4259E-01  0.3289E+00
     -3.387  0.4465E-01  0.3327E+00
     -3.300  0.5050E-01  0.3368E+00
     -3.213  0.6018E-01  0.3416E+00
     -3.126  0.7658E-01  0.3474E+00
     -3.039  0.7018E-01  0.3550E+00
     -2.952  0.7919E-01  0.3610E+00
     -2.865  0.4025E-01  0.3655E+00
     -2.778  0.1013E+00  0.3725E+00
     -2.691  0.1011E+00  0.3797E+00
     -2.604  0.5546E-01  0.3867E+00
     -2.517  0.7891E-01  0.3921E+00
     -2.430  0.7041E-01  0.3999E+00
     -2.343  0.6393E-01  0.4034E+00
     -2.256  0.9703E-01  0.4117E+00
     -2.169  0.8231E-01  0.4186E+00
     -2.082  0.1106E+00  0.4289E+00
     -1.995  0.9069E-01  0.4377E+00
     -1.908  0.9547E-01  0.4452E+00
     -1.821  0.1577E+00  0.4560E+00
     -1.734  0.1589E+00  0.4703E+00
     -1.647  0.1065E+00  0.4821E+00
     -1.560  0.8553E-01  0.4900E+00
     -1.473  0.7989E-01  0.4972E+00
     -1.386  0.4865E-01  0.5031E+00
     -1.299  0.1890E-01  0.5059E+00
     -1.212  0.1094E+00  0.5158E+00
     -1.125  0.1453E+00  0.5250E+00
     -1.038  0.1504E+00  0.5404E+00
     -0.951  0.9080E-01  0.5505E+00
     -0.864  0.6816E-01  0.5567E+00
     -0.777  0.9626E-01  0.5637E+00
     -0.690  0.1623E+00  0.5769E+00
     -0.603  0.8180E-01  0.5860E+00
     -0.516  0.7965E-01  0.5929E+00
     -0.429  0.8998E-01  0.6002E+00
     -0.342  0.8998E-01  0.6084E+00
     -0.255  0.6752E-01  0.6153E+00
     -0.168  0.1337E+00  0.6222E+00
     -0.081  0.3931E-01  0.6279E+00
      0.006  0.1944E+00  0.6374E+00
      0.093  0.1949E+00  0.6576E+00
      0.180  0.7076E-01  0.6675E+00
      0.267  0.1253E+00  0.6746E+00
      0.354  0.6922E-01  0.6848E+00
      0.441  0.1144E+00  0.6927E+00
      0.528  0.1069E+00  0.7026E+00
      0.615  0.7441E-01  0.7106E+00
      0.702  0.8635E-01  0.7175E+00
      0.789  0.9942E-01  0.7255E+00
      0.876  0.1518E+00  0.7356E+00
      0.963  0.1444E+00  0.7506E+00
      1.050  0.1485E+00  0.7636E+00
      1.137  0.1538E+00  0.7767E+00
      1.224  0.7472E-01  0.7880E+00
      1.311  0.6654E-01  0.7932E+00
      1.398  0.1267E+00  0.8027E+00
      1.485  0.1145E+00  0.8120E+00
      1.572  0.1724E+00  0.8235E+00
      1.659  0.1316E+00  0.8383E+00
      1.746  0.7979E-01  0.8469E+00
      1.833  0.1135E+00  0.8558E+00
      1.920  0.1688E+00  0.8731E+00
      2.007  0.1614E+00  0.8905E+00
      2.094  0.1118E+00  0.9017E+00
      2.181  0.9866E-01  0.9152E+00
      2.268  0.1206E+00  0.9222E+00
      2.355  0.2618E+00  0.9345E+00
      2.442  0.1748E+00  0.9534E+00
      2.529  0.1194E+00  0.9668E+00
      2.616  0.1627E+00  0.9807E+00
      2.704  0.2176E+00  0.9936E+00
      2.791  0.7432E-01  0.1007E+01
      2.878  0.1641E+00  0.1016E+01
      2.965  0.2079E+00  0.1033E+01
      3.052  0.1329E+00  0.1050E+01
      3.139  0.2000E+00  0.1063E+01
      3.226  0.1540E+00  0.1079E+01
      3.313  0.1246E+00  0.1090E+01
      3.400  0.9531E-01  0.1100E+01
      3.487  0.1091E+00  0.1108E+01
      3.574  0.1403E+00  0.1118E+01
      3.661  0.1944E+00  0.1134E+01
      3.748  0.1935E+00  0.1151E+01
      3.835  0.1295E+00  0.1163E+01
      3.922  0.7199E-01  0.1171E+01
      4.009  0.2386E+00  0.1187E+01
      4.096  0.2159E+00  0.1211E+01
      4.183  0.1063E+00  0.1219E+01
      4.270  0.1086E+00  0.1228E+01
      4.357  0.1374E+00  0.1238E+01
      4.444  0.1376E+00  0.1251E+01
      4.531  0.1024E+00  0.1262E+01
      4.618  0.8487E-01  0.1270E+01
      4.705  0.4904E-01  0.1276E+01
      4.792  0.2094E-01  0.1279E+01
      4.879  0.5198E-02  0.1280E+01
      4.966  0.1600E-02  0.1280E+01
      5.053  0.8460E-04  0.1280E+01
      5.140  0.0000E+00  0.1280E+01
      5.227  0.0000E+00  0.1280E+01
      5.314  0.0000E+00  0.1280E+01
      5.401  0.0000E+00  0.1280E+01
      5.488  0.0000E+00  0.1280E+01
      5.575  0.0000E+00  0.1280E+01
      5.662  0.0000E+00  0.1280E+01
      5.749  0.0000E+00  0.1280E+01
      5.836  0.0000E+00  0.1280E+01
      5.923  0.0000E+00  0.1280E+01
      6.010  0.0000E+00  0.1280E+01
      6.097  0.0000E+00  0.1280E+01
      6.184  0.0000E+00  0.1280E+01
      6.271  0.0000E+00  0.1280E+01
      6.358  0.0000E+00  0.1280E+01
      6.445  0.0000E+00  0.1280E+01
      6.532  0.0000E+00  0.1280E+01
      6.619  0.0000E+00  0.1280E+01
      6.706  0.0000E+00  0.1280E+01
      6.793  0.0000E+00  0.1280E+01
      6.880  0.0000E+00  0.1280E+01
      6.967  0.0000E+00  0.1280E+01
      7.054  0.0000E+00  0.1280E+01
      7.141  0.0000E+00  0.1280E+01
      7.228  0.0000E+00  0.1280E+01
      7.315  0.0000E+00  0.1280E+01
      7.402  0.0000E+00  0.1280E+01
      7.489  0.0000E+00  0.1280E+01
      7.576  0.0000E+00  0.1280E+01
      7.663  0.0000E+00  0.1280E+01
      7.750  0.0000E+00  0.1280E+01
      7.837  0.0000E+00  0.1280E+01
      7.924  0.0000E+00  0.1280E+01
      8.011  0.2896E-03  0.1280E+01
      8.098  0.7007E-02  0.1280E+01
      8.185  0.2398E-01  0.1282E+01
      8.272  0.8304E-01  0.1285E+01
      8.359  0.9710E-01  0.1294E+01
      8.446  0.1467E+00  0.1303E+01
      8.533  0.7385E-01  0.1312E+01
      8.620  0.6920E-01  0.1318E+01
      8.707  0.5687E-01  0.1324E+01
      8.794  0.8234E-01  0.1330E+01
      8.881  0.9809E-01  0.1339E+01
      8.968  0.1052E+00  0.1347E+01
      9.055  0.1010E+00  0.1356E+01
      9.143  0.1008E+00  0.1365E+01
      9.230  0.8720E-01  0.1373E+01
      9.317  0.1018E+00  0.1381E+01
      9.404  0.9448E-01  0.1390E+01
      9.491  0.1096E+00  0.1398E+01
      9.578  0.1537E+00  0.1410E+01
      9.665  0.6777E-01  0.1421E+01
      9.752  0.2188E+00  0.1428E+01
      9.839  0.1189E+00  0.1440E+01
      9.926  0.1016E+00  0.1450E+01
     10.013  0.4970E-01  0.1456E+01
     10.100  0.9465E-01  0.1464E+01
     10.187  0.1004E+00  0.1472E+01
     10.274  0.8318E-01  0.1480E+01
     10.361  0.1256E+00  0.1488E+01
     10.448  0.8426E-01  0.1499E+01
     10.535  0.5731E-01  0.1504E+01
     10.622  0.6107E-01  0.1510E+01
     10.709  0.8192E-01  0.1516E+01
     10.796  0.8885E-01  0.1524E+01
     10.883  0.7139E-01  0.1531E+01
     10.970  0.6802E-01  0.1537E+01
     11.057  0.8703E-01  0.1543E+01
     11.144  0.9356E-01  0.1551E+01
     11.231  0.9224E-01  0.1559E+01
     11.318  0.8290E-01  0.1567E+01
     11.405  0.6974E-01  0.1573E+01
     11.492  0.6661E-01  0.1579E+01
     11.579  0.7532E-01  0.1585E+01
     11.666  0.9052E-01  0.1593E+01
     11.753  0.9059E-01  0.1601E+01
     11.840  0.7629E-01  0.1608E+01
     11.927  0.5996E-01  0.1614E+01
     12.014  0.9124E-01  0.1620E+01
     12.101  0.1909E+00  0.1628E+01
     12.188  0.1548E+00  0.1642E+01
     12.275  0.4336E-01  0.1650E+01
     12.362  0.6073E-01  0.1654E+01
     12.449  0.1429E+00  0.1665E+01
     12.536  0.9766E-01  0.1674E+01
     12.623  0.1277E-01  0.1680E+01
     12.710  0.1438E+00  0.1685E+01
     12.797  0.0000E+00  0.1687E+01
     12.884  0.0000E+00  0.1687E+01
     12.971  0.0000E+00  0.1687E+01
     13.058  0.0000E+00  0.1687E+01
     13.145  0.0000E+00  0.1687E+01
     13.232  0.0000E+00  0.1687E+01
     13.319  0.0000E+00  0.1687E+01
     13.406  0.0000E+00  0.1687E+01
     13.493  0.0000E+00  0.1687E+01
     13.580  0.0000E+00  0.1687E+01
     13.667  0.0000E+00  0.1687E+01
     13.754  0.0000E+00  0.1687E+01
     13.841  0.0000E+00  0.1687E+01
     13.928  0.0000E+00  0.1687E+01
