       N       E                     dE             d eps       ncg     rms          rms(c)
DAV:   1     0.153431710005E+04    0.15343E+04   -0.21919E+05  3036   0.179E+03
DAV:   2    -0.780338008390E+03   -0.23147E+04   -0.21781E+04  3690   0.315E+02
DAV:   3    -0.927672946483E+03   -0.14733E+03   -0.14497E+03  3664   0.705E+01
DAV:   4    -0.931424095122E+03   -0.37511E+01   -0.37263E+01  3624   0.115E+01
DAV:   5    -0.931530358618E+03   -0.10626E+00   -0.10607E+00  3608   0.182E+00    0.406E+01
RMM:   6    -0.886198498233E+03    0.45332E+02   -0.64357E+01  3036   0.117E+01    0.218E+01
RMM:   7    -0.877991491873E+03    0.82070E+01   -0.55483E+01  3036   0.113E+01    0.791E+00
RMM:   8    -0.877588790993E+03    0.40270E+00   -0.73733E+00  3036   0.451E+00    0.256E+00
RMM:   9    -0.877296502753E+03    0.29229E+00   -0.20179E+00  3036   0.224E+00    0.926E-01
RMM:  10    -0.877297291957E+03   -0.78920E-03   -0.26907E-01  3089   0.944E-01    0.661E-01
RMM:  11    -0.877287455075E+03    0.98369E-02   -0.65584E-02  3036   0.448E-01    0.130E-01
RMM:  12    -0.877289044962E+03   -0.15899E-02   -0.10034E-02  3072   0.184E-01    0.155E-01
RMM:  13    -0.877288454708E+03    0.59025E-03   -0.25291E-03  3131   0.791E-02    0.661E-02
RMM:  14    -0.877288468179E+03   -0.13471E-04   -0.20042E-03  3039   0.675E-02    0.320E-02
RMM:  15    -0.877288444785E+03    0.23394E-04   -0.17188E-04  3066   0.272E-02    0.188E-02
RMM:  16    -0.877288441296E+03    0.34888E-05   -0.55367E-05  3026   0.119E-02    0.692E-03
RMM:  17    -0.877288442582E+03   -0.12851E-05   -0.10407E-05  2933   0.560E-03    0.348E-03
RMM:  18    -0.877288444168E+03   -0.15861E-05   -0.62528E-06  2576   0.383E-03    0.130E-03
RMM:  19    -0.877288444119E+03    0.48624E-07   -0.81211E-07  1883   0.169E-03
   1 F= -.87728844E+03 E0= -.87728844E+03  d E =-.877288E+03
       N       E                     dE             d eps       ncg     rms          rms(c)
DAV:   1    -0.877182242113E+03    0.10620E+00   -0.21044E+01  3352   0.975E+00    0.134E+00
RMM:   2    -0.877182175795E+03    0.66318E-04   -0.47200E-01  3036   0.138E+00    0.833E-01
RMM:   3    -0.877168369848E+03    0.13806E-01   -0.94142E-02  3036   0.580E-01    0.303E-01
RMM:   4    -0.877169014644E+03   -0.64480E-03   -0.14919E-02  3065   0.244E-01    0.190E-01
RMM:   5    -0.877169141646E+03   -0.12700E-03   -0.28491E-03  3061   0.106E-01    0.461E-02
RMM:   6    -0.877169189973E+03   -0.48327E-04   -0.76654E-04  3124   0.505E-02    0.334E-02
RMM:   7    -0.877169202951E+03   -0.12978E-04   -0.15857E-04  3090   0.230E-02    0.601E-03
RMM:   8    -0.877169205190E+03   -0.22390E-05   -0.36026E-05  3128   0.107E-02    0.528E-03
RMM:   9    -0.877169206060E+03   -0.87034E-06   -0.80415E-06  2708   0.507E-03
   2 F= -.87716921E+03 E0= -.87716921E+03  d E =0.119238E+00
       N       E                     dE             d eps       ncg     rms          rms(c)
DAV:   1    -0.877333279043E+03   -0.16407E+00   -0.95322E+00  3208   0.655E+00    0.880E-01
RMM:   2    -0.877331924147E+03    0.13549E-02   -0.20568E-01  3036   0.921E-01    0.557E-01
RMM:   3    -0.877325637311E+03    0.62868E-02   -0.45522E-02  3036   0.398E-01    0.161E-01
RMM:   4    -0.877326023547E+03   -0.38624E-03   -0.62380E-03  3059   0.163E-01    0.106E-01
RMM:   5    -0.877326082454E+03   -0.58907E-04   -0.13616E-03  3048   0.732E-02    0.243E-02
RMM:   6    -0.877326104538E+03   -0.22083E-04   -0.32902E-04  3153   0.333E-02    0.206E-02
RMM:   7    -0.877326109763E+03   -0.52249E-05   -0.75920E-05  3062   0.159E-02    0.410E-03
RMM:   8    -0.877326110456E+03   -0.69346E-06   -0.15846E-05  3057   0.729E-03    0.375E-03
RMM:   9    -0.877326110859E+03   -0.40265E-06   -0.43897E-06  2274   0.368E-03
   3 F= -.87732611E+03 E0= -.87732611E+03  d E =-.376667E-01
       N       E                     dE             d eps       ncg     rms          rms(c)
DAV:   1    -0.877343408963E+03   -0.17299E-01   -0.45582E+00  3136   0.466E+00    0.618E-01
RMM:   2    -0.877345488856E+03   -0.20799E-02   -0.83185E-02  3036   0.615E-01    0.370E-01
RMM:   3    -0.877344392333E+03    0.10965E-02   -0.17299E-02  3039   0.247E-01    0.110E-01
RMM:   4    -0.877344579239E+03   -0.18691E-03   -0.28540E-03  3131   0.101E-01    0.567E-02
RMM:   5    -0.877344589797E+03   -0.10558E-04   -0.58105E-04  3059   0.455E-02    0.125E-02
RMM:   6    -0.877344595627E+03   -0.58300E-05   -0.12702E-04  3133   0.204E-02    0.946E-03
RMM:   7    -0.877344597633E+03   -0.20053E-05   -0.28944E-05  3066   0.972E-03    0.270E-03
RMM:   8    -0.877344598000E+03   -0.36732E-06   -0.59865E-06  2551   0.447E-03
   4 F= -.87734460E+03 E0= -.87734460E+03  d E =-.184871E-01
       N       E                     dE             d eps       ncg     rms          rms(c)
DAV:   1    -0.877350036881E+03   -0.54392E-02   -0.48389E-01  3192   0.152E+00    0.201E-01
RMM:   2    -0.877350266892E+03   -0.23001E-03   -0.87962E-03  3036   0.200E-01    0.120E-01
RMM:   3    -0.877350160235E+03    0.10666E-03   -0.18261E-03  3038   0.802E-02    0.365E-02
RMM:   4    -0.877350181996E+03   -0.21761E-04   -0.30407E-04  3133   0.330E-02    0.190E-02
RMM:   5    -0.877350184246E+03   -0.22497E-05   -0.61458E-05  3058   0.148E-02    0.425E-03
RMM:   6    -0.877350184821E+03   -0.57458E-06   -0.13443E-05  3075   0.666E-03    0.329E-03
RMM:   7    -0.877350185074E+03   -0.25306E-06   -0.30905E-06  2170   0.320E-03
   5 F= -.87735019E+03 E0= -.87735019E+03  d E =-.240742E-01
       N       E                     dE             d eps       ncg     rms          rms(c)
DAV:   1    -0.877380340334E+03   -0.30156E-01   -0.33810E+00  3076   0.401E+00    0.445E-01
RMM:   2    -0.877378618282E+03    0.17221E-02   -0.38971E-02  3036   0.408E-01    0.252E-01
RMM:   3    -0.877378076445E+03    0.54184E-03   -0.10675E-02  3036   0.179E-01    0.842E-02
RMM:   4    -0.877378154686E+03   -0.78242E-04   -0.15825E-03  3098   0.723E-02    0.434E-02
RMM:   5    -0.877378182400E+03   -0.27714E-04   -0.38486E-04  3108   0.343E-02    0.125E-02
RMM:   6    -0.877378185483E+03   -0.30831E-05   -0.62419E-05  3087   0.142E-02    0.783E-03
RMM:   7    -0.877378186525E+03   -0.10416E-05   -0.16224E-05  3030   0.702E-03    0.179E-03
RMM:   8    -0.877378186758E+03   -0.23348E-06   -0.29772E-06  2171   0.303E-03
   6 F= -.87737819E+03 E0= -.87737819E+03  d E =-.280017E-01
       N       E                     dE             d eps       ncg     rms          rms(c)
DAV:   1    -0.877382930484E+03   -0.47440E-02   -0.10301E+00  3144   0.221E+00    0.247E-01
RMM:   2    -0.877382400624E+03    0.52986E-03   -0.11945E-02  3036   0.226E-01    0.139E-01
RMM:   3    -0.877382237715E+03    0.16291E-03   -0.32597E-03  3036   0.988E-02    0.472E-02
RMM:   4    -0.877382261869E+03   -0.24154E-04   -0.48389E-04  3100   0.400E-02    0.243E-02
RMM:   5    -0.877382270042E+03   -0.81731E-05   -0.11652E-04  3107   0.189E-02    0.699E-03
RMM:   6    -0.877382270874E+03   -0.83189E-06   -0.19285E-05  3063   0.786E-03    0.438E-03
RMM:   7    -0.877382271074E+03   -0.20062E-06   -0.49439E-06  2383   0.390E-03
   7 F= -.87738227E+03 E0= -.87738227E+03  d E =-.320860E-01
       N       E                     dE             d eps       ncg     rms          rms(c)
DAV:   1    -0.877388428630E+03   -0.61578E-02   -0.19957E+00  3114   0.305E+00    0.379E-01
RMM:   2    -0.877386730518E+03    0.16981E-02   -0.31913E-02  3036   0.366E-01    0.209E-01
RMM:   3    -0.877386251938E+03    0.47858E-03   -0.78870E-03  3036   0.159E-01    0.881E-02
RMM:   4    -0.877386280168E+03   -0.28230E-04   -0.10266E-03  3106   0.634E-02    0.495E-02
RMM:   5    -0.877386292269E+03   -0.12102E-04   -0.27400E-04  3085   0.303E-02    0.157E-02
RMM:   6    -0.877386294958E+03   -0.26882E-05   -0.61026E-05  3080   0.138E-02    0.929E-03
RMM:   7    -0.877386295604E+03   -0.64636E-06   -0.12680E-05  2972   0.657E-03    0.196E-03
RMM:   8    -0.877386295643E+03   -0.38842E-07   -0.27647E-06  2124   0.297E-03
   8 F= -.87738630E+03 E0= -.87738630E+03  d E =-.402457E-02
       N       E                     dE             d eps       ncg     rms          rms(c)
DAV:   1    -0.877388561554E+03   -0.22659E-02   -0.26519E-01  3150   0.111E+00    0.137E-01
RMM:   2    -0.877388341676E+03    0.21988E-03   -0.42029E-03  3036   0.133E-01    0.761E-02
RMM:   3    -0.877388281878E+03    0.59798E-04   -0.10472E-03  3036   0.578E-02    0.309E-02
RMM:   4    -0.877388286051E+03   -0.41735E-05   -0.13498E-04  3100   0.230E-02    0.173E-02
RMM:   5    -0.877388288318E+03   -0.22666E-05   -0.36570E-05  3088   0.110E-02    0.558E-03
RMM:   6    -0.877388288581E+03   -0.26274E-06   -0.78858E-06  2843   0.497E-03
   9 F= -.87738829E+03 E0= -.87738829E+03  d E =-.601751E-02
       N       E                     dE             d eps       ncg     rms          rms(c)
DAV:   1    -0.877389402308E+03   -0.11140E-02   -0.14079E-01  3144   0.811E-01    0.878E-02
RMM:   2    -0.877389427853E+03   -0.25546E-04   -0.20904E-03  3036   0.980E-02    0.532E-02
RMM:   3    -0.877389389625E+03    0.38228E-04   -0.47587E-04  3036   0.406E-02    0.133E-02
RMM:   4    -0.877389394578E+03   -0.49529E-05   -0.69086E-05  3110   0.160E-02    0.909E-03
RMM:   5    -0.877389395025E+03   -0.44739E-06   -0.16422E-05  3065   0.739E-03    0.245E-03
RMM:   6    -0.877389395137E+03   -0.11170E-06   -0.32166E-06  2199   0.321E-03
  10 F= -.87738940E+03 E0= -.87738940E+03  d E =-.110656E-02
       N       E                     dE             d eps       ncg     rms          rms(c)
DAV:   1    -0.877389416041E+03   -0.21016E-04   -0.20286E-03  3312   0.975E-02    0.105E-02
RMM:   2    -0.877389416103E+03   -0.61596E-07   -0.29046E-05  3036   0.116E-02    0.633E-03
RMM:   3    -0.877389415648E+03    0.45441E-06   -0.66879E-06  3020   0.478E-03
  11 F= -.87738942E+03 E0= -.87738942E+03  d E =-.112707E-02
       N       E                     dE             d eps       ncg     rms          rms(c)
DAV:   1    -0.877389081589E+03    0.33451E-03   -0.12691E-01  3132   0.762E-01    0.104E-01
RMM:   2    -0.877389140594E+03   -0.59005E-04   -0.24341E-03  3036   0.102E-01    0.666E-02
RMM:   3    -0.877389084720E+03    0.55873E-04   -0.54075E-04  3036   0.430E-02    0.161E-02
RMM:   4    -0.877389091113E+03   -0.63927E-05   -0.79869E-05  3065   0.177E-02    0.995E-03
RMM:   5    -0.877389091247E+03   -0.13440E-06   -0.19294E-05  3067   0.816E-03    0.223E-03
RMM:   6    -0.877389091382E+03   -0.13446E-06   -0.36428E-06  2205   0.346E-03
  12 F= -.87738909E+03 E0= -.87738909E+03  d E =0.324267E-03
       N       E                     dE             d eps       ncg     rms          rms(c)
DAV:   1    -0.877389732787E+03   -0.64154E-03   -0.43518E-02  3124   0.446E-01    0.606E-02
RMM:   2    -0.877389751030E+03   -0.18244E-04   -0.82780E-04  3036   0.596E-02    0.391E-02
RMM:   3    -0.877389731752E+03    0.19278E-04   -0.18643E-04  3037   0.252E-02    0.937E-03
RMM:   4    -0.877389734010E+03   -0.22578E-05   -0.27019E-05  3063   0.103E-02    0.591E-03
RMM:   5    -0.877389734212E+03   -0.20232E-06   -0.66691E-06  2765   0.479E-03
  13 F= -.87738973E+03 E0= -.87738973E+03  d E =-.318564E-03
       N       E                     dE             d eps       ncg     rms          rms(c)
DAV:   1    -0.877389977601E+03   -0.24359E-03   -0.24529E-02  3102   0.331E-01    0.399E-02
RMM:   2    -0.877389974897E+03    0.27046E-05   -0.37824E-04  3036   0.407E-02    0.232E-02
RMM:   3    -0.877389967027E+03    0.78696E-05   -0.88029E-05  3036   0.176E-02    0.637E-03
RMM:   4    -0.877389967955E+03   -0.92813E-06   -0.12382E-05  3093   0.686E-03    0.401E-03
RMM:   5    -0.877389968261E+03   -0.30551E-06   -0.26984E-06  2103   0.310E-03
  14 F= -.87738997E+03 E0= -.87738997E+03  d E =-.234049E-03
       N       E                     dE             d eps       ncg     rms          rms(c)
DAV:   1    -0.877389974565E+03   -0.66098E-05   -0.81577E-04  3376   0.603E-02    0.737E-03
RMM:   2    -0.877389974592E+03   -0.26439E-07   -0.13181E-05  3035   0.760E-03    0.442E-03
RMM:   3    -0.877389974414E+03    0.17792E-06   -0.31348E-06  2161   0.331E-03
  15 F= -.87738997E+03 E0= -.87738997E+03  d E =-.240202E-03
       N       E                     dE             d eps       ncg     rms          rms(c)
DAV:   1    -0.877390065129E+03   -0.90537E-04   -0.82967E-03  3092   0.195E-01    0.244E-02
RMM:   2    -0.877390064632E+03    0.49636E-06   -0.11288E-04  3036   0.227E-02    0.142E-02
RMM:   3    -0.877390062822E+03    0.18100E-05   -0.29116E-05  3036   0.993E-03    0.369E-03
RMM:   4    -0.877390063254E+03   -0.43154E-06   -0.44779E-06  2345   0.392E-03
  16 F= -.87739006E+03 E0= -.87739006E+03  d E =-.888401E-04
       N       E                     dE             d eps       ncg     rms          rms(c)
DAV:   1    -0.877390065367E+03   -0.25449E-05   -0.21350E-04  3480   0.314E-02    0.399E-03
RMM:   2    -0.877390065389E+03   -0.22348E-07   -0.35465E-06  2210   0.400E-03
  17 F= -.87739007E+03 E0= -.87739007E+03  d E =-.909758E-04
       N       E                     dE             d eps       ncg     rms          rms(c)
DAV:   1    -0.877390090323E+03   -0.24956E-04   -0.27188E-03  3110   0.111E-01    0.141E-02
RMM:   2    -0.877390090224E+03    0.99107E-07   -0.44935E-05  3036   0.140E-02    0.801E-03
RMM:   3    -0.877390089839E+03    0.38520E-06   -0.10276E-05  3036   0.598E-03    0.249E-03
RMM:   4    -0.877390089916E+03   -0.77752E-07   -0.13842E-06  1897   0.237E-03
  18 F= -.87739009E+03 E0= -.87739009E+03  d E =-.245269E-04
       N       E                     dE             d eps       ncg     rms          rms(c)
DAV:   1    -0.877390089912E+03   -0.73083E-07   -0.17355E-06  2475   0.287E-03    0.479E-04
RMM:   2    -0.877390089921E+03   -0.90308E-08   -0.16166E-07  1580   0.865E-04
  19 F= -.87739009E+03 E0= -.87739009E+03  d E =-.245312E-04
       N       E                     dE             d eps       ncg     rms          rms(c)
DAV:   1    -0.877390088437E+03    0.14744E-05   -0.70913E-04  3166   0.563E-02    0.738E-03
RMM:   2    -0.877390088507E+03   -0.69712E-07   -0.15830E-05  3030   0.800E-03    0.485E-03
RMM:   3    -0.877390087938E+03    0.56860E-06   -0.31861E-06  2161   0.334E-03
  20 F= -.87739009E+03 E0= -.87739009E+03  d E =0.198237E-05
       N       E                     dE             d eps       ncg     rms          rms(c)
DAV:   1    -0.877390091885E+03   -0.33780E-05   -0.23351E-04  3174   0.323E-02    0.410E-03
RMM:   2    -0.877390091948E+03   -0.63065E-07   -0.49766E-06  2411   0.449E-03
  21 F= -.87739009E+03 E0= -.87739009E+03  d E =-.202731E-05
