 vasp.6.2.0 18Jan21 (build Feb 25 2021 07:51:20) complex                         
 executed on             LinuxPGI date 2022.04.12  13:24:52
 running on    1 total cores
 distrk:  each k-point on    1 cores,    1 groups
 distr:  one band on NCORE=   1 cores,    1 groups


--------------------------------------------------------------------------------------------------------


 INCAR:
   ALGO = Fast
   PREC = Accurate
   EDIFF = 1E-6
   ENCUT = 700
   ISMEAR = -5
   IBRION = 2
   ISIF = 4
   LREAL = Auto
   LWAVE = False
   LCHARGE = False
   NSW = 300
   SIGMA = 0.05

 POTCAR:    PAW_PBE B 06Sep2000                   
 POTCAR:    PAW_PBE C 08Apr2002                   
 POTCAR:    PAW_PBE B 06Sep2000                   
   VRHFIN =B: s2p1                                                                                  
   LEXCH  = PE                                                                                      
   EATOM  =    71.1703 eV,    5.2309 Ry                                                             
                                                                                                    
   TITEL  = PAW_PBE B 06Sep2000                                                                     
   LULTRA =        F    use ultrasoft PP ?                                                          
   IUNSCR =        1    unscreen: 0-lin 1-nonlin 2-no                                               
   RPACOR =    1.200    partial core radius                                                         
   POMASS =   10.811; ZVAL   =    3.000    mass and valenz                                          
   RCORE  =    1.700    outmost cutoff radius                                                       
   RWIGS  =    1.710; RWIGS  =    0.905    wigner-seitz radius (au A)                               
   ENMAX  =  318.614; ENMIN  =  238.960 eV                                                          
   ICORE  =        2    local potential                                                             
   LCOR   =        T    correct aug charges                                                         
   LPAW   =        T    paw PP                                                                      
   EAUG   =  535.514                                                                                
   DEXC   =    0.000                                                                                
   RMAX   =    1.732    core radius for proj-oper                                                   
   RAUG   =    1.300    factor for augmentation sphere                                              
   RDEP   =    1.757    radius for radial grids                                                     
   RDEPT  =    1.436    core radius for aug-charge                                                  
                                                                                                    
   Atomic configuration                                                                             
    4 entries                                                                                       
     n  l   j            E        occ.                                                              
     1  0  0.50      -180.5896   2.0000                                                             
     2  0  0.50        -9.4431   2.0000                                                             
     2  1  0.50        -3.6068   1.0000                                                             
     3  2  1.50        -4.0817   0.0000                                                             
   Description                                                                                      
     l       E           TYP  RCUT    TYP  RCUT                                                     
     0     -9.4430752     23  1.500                                                                 
     0      0.8675899     23  1.500                                                                 
     1     -3.6067955     23  1.700                                                                 
     1      6.1086146     23  1.700                                                                 
     2     -4.0817478      7  1.700                                                                 
  local pseudopotential read in
  partial core-charges read in
  partial kinetic energy density read in
  atomic valenz-charges read in
  non local Contribution for L=            0  read in
    real space projection operators read in
  non local Contribution for L=            0  read in
    real space projection operators read in
  non local Contribution for L=            1  read in
    real space projection operators read in
  non local Contribution for L=            1  read in
    real space projection operators read in
    PAW grid and wavefunctions read in
 
   number of l-projection  operators is LMAX  =            4
   number of lm-projection operators is LMMAX =            8
 
 POTCAR:    PAW_PBE C 08Apr2002                   
   VRHFIN =C: s2p2                                                                                  
   LEXCH  = PE                                                                                      
   EATOM  =   147.1560 eV,   10.8157 Ry                                                             
                                                                                                    
   TITEL  = PAW_PBE C 08Apr2002                                                                     
   LULTRA =        F    use ultrasoft PP ?                                                          
   IUNSCR =        1    unscreen: 0-lin 1-nonlin 2-no                                               
   RPACOR =    1.200    partial core radius                                                         
   POMASS =   12.011; ZVAL   =    4.000    mass and valenz                                          
   RCORE  =    1.500    outmost cutoff radius                                                       
   RWIGS  =    1.630; RWIGS  =    0.863    wigner-seitz radius (au A)                               
   ENMAX  =  400.000; ENMIN  =  300.000 eV                                                          
   ICORE  =        2    local potential                                                             
   LCOR   =        T    correct aug charges                                                         
   LPAW   =        T    paw PP                                                                      
   EAUG   =  644.873                                                                                
   DEXC   =    0.000                                                                                
   RMAX   =    1.529    core radius for proj-oper                                                   
   RAUG   =    1.300    factor for augmentation sphere                                              
   RDEP   =    1.501    radius for radial grids                                                     
   RDEPT  =    1.300    core radius for aug-charge                                                  
                                                                                                    
   Atomic configuration                                                                             
    4 entries                                                                                       
     n  l   j            E        occ.                                                              
     1  0  0.50      -273.3789   2.0000                                                             
     2  0  0.50       -13.7508   2.0000                                                             
     2  1  0.50        -5.2854   2.0000                                                             
     3  2  1.50        -5.4423   0.0000                                                             
   Description                                                                                      
     l       E           TYP  RCUT    TYP  RCUT                                                     
     0    -13.7508458     23  1.200                                                                 
     0     -8.2022199     23  1.200                                                                 
     1     -5.2854383     23  1.500                                                                 
     1     34.0145650     23  1.500                                                                 
     2     -5.4423304      7  1.500                                                                 
  local pseudopotential read in
  partial core-charges read in
  partial kinetic energy density read in
  atomic valenz-charges read in
  non local Contribution for L=            0  read in
    real space projection operators read in
  non local Contribution for L=            0  read in
    real space projection operators read in
  non local Contribution for L=            1  read in
    real space projection operators read in
  non local Contribution for L=            1  read in
    real space projection operators read in
    PAW grid and wavefunctions read in
 
   number of l-projection  operators is LMAX  =            4
   number of lm-projection operators is LMMAX =            8
 
 Optimization of the real space projectors (new method)

 maximal supplied QI-value         = 22.11
 optimisation between [QCUT,QGAM] = [ 13.49, 26.97] = [ 50.94,203.75] Ry 
 Optimized for a Real-space Cutoff    1.14 Angstroem

   l    n(q)    QCUT    max X(q) W(low)/X(q) W(high)/X(q)  e(spline) 
   0      9    13.487    53.033    0.17E-03    0.11E-03    0.20E-06
   0      9    13.487    34.740    0.17E-03    0.11E-03    0.20E-06
   1      9    13.487    30.949    0.61E-04    0.25E-04    0.11E-06
   1      9    13.487    19.518    0.55E-04    0.23E-04    0.10E-06
 Optimization of the real space projectors (new method)

 maximal supplied QI-value         = 25.13
 optimisation between [QCUT,QGAM] = [ 13.32, 26.89] = [ 49.69,202.52] Ry 
 Optimized for a Real-space Cutoff    1.07 Angstroem

   l    n(q)    QCUT    max X(q) W(low)/X(q) W(high)/X(q)  e(spline) 
   0      9    13.321   115.676    0.24E-03    0.18E-03    0.16E-06
   0      9    13.321    87.132    0.24E-03    0.18E-03    0.16E-06
   1      8    13.321     4.429    0.20E-03    0.27E-03    0.12E-06
   1      8    13.321     2.733    0.16E-03    0.21E-03    0.12E-06
  PAW_PBE B 06Sep2000                   :
 energy of atom  1       EATOM=  -71.1703
 kinetic energy error for atom=    0.0004 (will be added to EATOM!!)
  PAW_PBE C 08Apr2002                   :
 energy of atom  2       EATOM= -147.1560
 kinetic energy error for atom=    0.0032 (will be added to EATOM!!)
 
 
 POSCAR: B96 C24
  positions in direct lattice
  No initial velocities read in
 exchange correlation table for  LEXCH =        8
   RHO(1)=    0.500       N(1)  =     2000
   RHO(2)=  100.500       N(2)  =     4000
 


--------------------------------------------------------------------------------------------------------


 ion  position               nearest neighbor table
   1  0.158  0.404  0.404- 105 1.61  42 1.75  35 1.75  61 1.80  53 1.80  68 1.80
   2  0.158  0.404  0.904- 106 1.61  41 1.75  36 1.75  62 1.80  54 1.80  67 1.80
   3  0.158  0.904  0.404- 107 1.61  44 1.75  33 1.75  63 1.80  55 1.80  66 1.80
   4  0.158  0.904  0.904- 108 1.61  43 1.75  34 1.75  64 1.80  56 1.80  65 1.80
   5  0.658  0.404  0.404- 109 1.61  46 1.75  39 1.75  57 1.80  49 1.80  72 1.80
   6  0.658  0.404  0.904- 110 1.61  45 1.75  40 1.75  58 1.80  50 1.80  71 1.80
   7  0.658  0.904  0.404- 111 1.61  48 1.75  37 1.75  59 1.80  51 1.80  70 1.80
   8  0.658  0.904  0.904- 112 1.61  47 1.75  38 1.75  60 1.80  52 1.80  69 1.80
   9  0.402  0.402  0.157- 105 1.62  45 1.75  27 1.76  98 1.77  79 1.78  58 1.81
  10  0.402  0.402  0.657- 106 1.62  46 1.75  28 1.76  97 1.77  80 1.78  57 1.81
  11  0.402  0.902  0.157- 107 1.62  47 1.75  25 1.76 100 1.77  77 1.78  60 1.81
  12  0.402  0.902  0.657- 108 1.62  48 1.75  26 1.76  99 1.77  78 1.78  59 1.81
  13  0.902  0.402  0.157- 109 1.62  41 1.75  31 1.76 102 1.77  75 1.78  62 1.81
  14  0.902  0.402  0.657- 110 1.62  42 1.75  32 1.76 101 1.77  76 1.78  61 1.81
  15  0.902  0.902  0.157- 111 1.62  43 1.75  29 1.76 104 1.77  73 1.78  64 1.81
  16  0.902  0.902  0.657- 112 1.62  44 1.75  30 1.76 103 1.77  74 1.78  63 1.81
  17  0.402  0.157  0.402- 105 1.62  37 1.75  26 1.76  99 1.77  86 1.78  51 1.81
  18  0.402  0.157  0.902- 106 1.62  38 1.75  25 1.76 100 1.77  85 1.78  52 1.81
  19  0.402  0.657  0.402- 107 1.62  39 1.75  28 1.76  97 1.77  88 1.78  49 1.81
  20  0.402  0.657  0.902- 108 1.62  40 1.75  27 1.76  98 1.77  87 1.78  50 1.81
  21  0.902  0.157  0.402- 109 1.62  33 1.75  30 1.76 103 1.77  82 1.78  55 1.81
  22  0.902  0.157  0.902- 110 1.62  34 1.75  29 1.76 104 1.77  81 1.78  56 1.81
  23  0.902  0.657  0.402- 111 1.62  35 1.75  32 1.76 101 1.77  84 1.78  53 1.81
  24  0.902  0.657  0.902- 112 1.62  36 1.75  31 1.76 102 1.77  83 1.78  54 1.81
  25  0.341  0.097  0.097- 113 1.59 100 1.74  18 1.76  11 1.76  85 1.79  77 1.79
  26  0.341  0.097  0.597- 114 1.59  99 1.74  17 1.76  12 1.76  86 1.79  78 1.79
  27  0.341  0.597  0.097- 115 1.59  98 1.74  20 1.76   9 1.76  87 1.79  79 1.79
  28  0.341  0.597  0.597- 116 1.59  97 1.74  19 1.76  10 1.76  88 1.79  80 1.79
  29  0.841  0.097  0.097- 117 1.59 104 1.74  22 1.76  15 1.76  81 1.79  73 1.79
  30  0.841  0.097  0.597- 118 1.59 103 1.74  21 1.76  16 1.76  82 1.79  74 1.79
  31  0.841  0.597  0.097- 119 1.59 102 1.74  24 1.76  13 1.76  83 1.79  75 1.79
  32  0.841  0.597  0.597- 120 1.59 101 1.74  23 1.76  14 1.76  84 1.79  76 1.79
  33  0.099  0.097  0.344- 113 1.61  21 1.75   3 1.75  55 1.79  82 1.81  66 1.82
  34  0.099  0.097  0.844- 114 1.61  22 1.75   4 1.75  56 1.79  81 1.81  65 1.82
  35  0.099  0.597  0.344- 115 1.61  23 1.75   1 1.75  53 1.79  84 1.81  68 1.82
  36  0.099  0.597  0.844- 116 1.61  24 1.75   2 1.75  54 1.79  83 1.81  67 1.82
  37  0.599  0.097  0.344- 117 1.61  17 1.75   7 1.75  51 1.79  86 1.81  70 1.82
  38  0.599  0.097  0.844- 118 1.61  18 1.75   8 1.75  52 1.79  85 1.81  69 1.82
  39  0.599  0.597  0.344- 119 1.61  19 1.75   5 1.75  49 1.79  88 1.81  72 1.82
  40  0.599  0.597  0.844- 120 1.61  20 1.75   6 1.75  50 1.79  87 1.81  71 1.82
  41  0.099  0.344  0.097- 113 1.61  13 1.75   2 1.75  62 1.79  75 1.81  67 1.82
  42  0.099  0.344  0.597- 114 1.61  14 1.75   1 1.75  61 1.79  76 1.81  68 1.82
  43  0.099  0.844  0.097- 115 1.61  15 1.75   4 1.75  64 1.79  73 1.81  65 1.82
  44  0.099  0.844  0.597- 116 1.61  16 1.75   3 1.75  63 1.79  74 1.81  66 1.82
  45  0.599  0.344  0.097- 117 1.61   9 1.75   6 1.75  58 1.79  79 1.81  71 1.82
  46  0.599  0.344  0.597- 118 1.61  10 1.75   5 1.75  57 1.79  80 1.81  72 1.82
  47  0.599  0.844  0.097- 119 1.61  11 1.75   8 1.75  60 1.79  77 1.81  69 1.82
  48  0.599  0.844  0.597- 120 1.61  12 1.75   7 1.75  59 1.79  78 1.81  70 1.82
  49  0.494  0.497  0.337-  79 1.74  97 1.78  39 1.79   5 1.80  19 1.81  57 1.81
  50  0.494  0.497  0.837-  80 1.74  98 1.78  40 1.79   6 1.80  20 1.81  58 1.81
  51  0.494  0.997  0.337-  77 1.74  99 1.78  37 1.79   7 1.80  17 1.81  59 1.81
  52  0.494  0.997  0.837-  78 1.74 100 1.78  38 1.79   8 1.80  18 1.81  60 1.81
  53  0.994  0.497  0.337-  75 1.74 101 1.78  35 1.79   1 1.80  23 1.81  61 1.81
  54  0.994  0.497  0.837-  76 1.74 102 1.78  36 1.79   2 1.80  24 1.81  62 1.81
  55  0.994  0.997  0.337-  73 1.74 103 1.78  33 1.79   3 1.80  21 1.81  63 1.81
  56  0.994  0.997  0.837-  74 1.74 104 1.78  34 1.79   4 1.80  22 1.81  64 1.81
  57  0.494  0.337  0.497-  86 1.74  97 1.78  46 1.79   5 1.80  10 1.81  49 1.81
  58  0.494  0.337  0.997-  85 1.74  98 1.78  45 1.79   6 1.80   9 1.81  50 1.81
  59  0.494  0.837  0.497-  88 1.74  99 1.78  48 1.79   7 1.80  12 1.81  51 1.81
  60  0.494  0.837  0.997-  87 1.74 100 1.78  47 1.79   8 1.80  11 1.81  52 1.81
  61  0.994  0.337  0.497-  82 1.74 101 1.78  42 1.79   1 1.80  14 1.81  53 1.81
  62  0.994  0.337  0.997-  81 1.74 102 1.78  41 1.79   2 1.80  13 1.81  54 1.81
  63  0.994  0.837  0.497-  84 1.74 103 1.78  44 1.79   3 1.80  16 1.81  55 1.81
  64  0.994  0.837  0.997-  83 1.74 104 1.78  43 1.79   4 1.80  15 1.81  56 1.81
  65  0.171  0.003  0.003- 100 1.66   4 1.80  34 1.82  43 1.82  73 1.84  81 1.84
  66  0.171  0.003  0.503-  99 1.66   3 1.80  33 1.82  44 1.82  74 1.84  82 1.84
  67  0.171  0.503  0.003-  98 1.66   2 1.80  36 1.82  41 1.82  75 1.84  83 1.84
  68  0.171  0.503  0.503-  97 1.66   1 1.80  35 1.82  42 1.82  76 1.84  84 1.84
  69  0.671  0.003  0.003- 104 1.66   8 1.80  38 1.82  47 1.82  77 1.84  85 1.84
  70  0.671  0.003  0.503- 103 1.66   7 1.80  37 1.82  48 1.82  78 1.84  86 1.84
  71  0.671  0.503  0.003- 102 1.66   6 1.80  40 1.82  45 1.82  79 1.84  87 1.84
  72  0.671  0.503  0.503- 101 1.66   5 1.80  39 1.82  46 1.82  80 1.84  88 1.84
  73  0.003  0.003  0.164-  55 1.74  15 1.78  29 1.79  43 1.81  81 1.82  65 1.84
  74  0.003  0.003  0.664-  56 1.74  16 1.78  30 1.79  44 1.81  82 1.82  66 1.84
  75  0.003  0.503  0.164-  53 1.74  13 1.78  31 1.79  41 1.81  83 1.82  67 1.84
  76  0.003  0.503  0.664-  54 1.74  14 1.78  32 1.79  42 1.81  84 1.82  68 1.84
  77  0.503  0.003  0.164-  51 1.74  11 1.78  25 1.79  47 1.81  85 1.82  69 1.84
  78  0.503  0.003  0.664-  52 1.74  12 1.78  26 1.79  48 1.81  86 1.82  70 1.84
  79  0.503  0.503  0.164-  49 1.74   9 1.78  27 1.79  45 1.81  87 1.82  71 1.84
  80  0.503  0.503  0.664-  50 1.74  10 1.78  28 1.79  46 1.81  88 1.82  72 1.84
  81  0.003  0.164  0.003-  62 1.74  22 1.78  29 1.79  34 1.81  73 1.82  65 1.84
  82  0.003  0.164  0.503-  61 1.74  21 1.78  30 1.79  33 1.81  74 1.82  66 1.84
  83  0.003  0.664  0.003-  64 1.74  24 1.78  31 1.79  36 1.81  75 1.82  67 1.84
  84  0.003  0.664  0.503-  63 1.74  23 1.78  32 1.79  35 1.81  76 1.82  68 1.84
  85  0.503  0.164  0.003-  58 1.74  18 1.78  25 1.79  38 1.81  77 1.82  69 1.84
  86  0.503  0.164  0.503-  57 1.74  17 1.78  26 1.79  37 1.81  78 1.82  70 1.84
  87  0.503  0.664  0.003-  60 1.74  20 1.78  27 1.79  40 1.81  79 1.82  71 1.84
  88  0.503  0.664  0.503-  59 1.74  19 1.78  28 1.79  39 1.81  80 1.82  72 1.84
  89  0.248  0.249  0.249- 113 1.43 105 1.44
  90  0.248  0.249  0.749- 114 1.43 106 1.44
  91  0.248  0.749  0.249- 115 1.43 107 1.44
  92  0.248  0.749  0.749- 116 1.43 108 1.44
  93  0.748  0.249  0.249- 117 1.43 109 1.44
  94  0.748  0.249  0.749- 118 1.43 110 1.44
  95  0.748  0.749  0.249- 119 1.43 111 1.44
  96  0.748  0.749  0.749- 120 1.43 112 1.44
  97  0.338  0.498  0.498-  68 1.66  28 1.74  10 1.77  19 1.77  49 1.78  57 1.78
  98  0.338  0.498  0.998-  67 1.66  27 1.74   9 1.77  20 1.77  50 1.78  58 1.78
  99  0.338  0.998  0.498-  66 1.66  26 1.74  12 1.77  17 1.77  51 1.78  59 1.78
 100  0.338  0.998  0.998-  65 1.66  25 1.74  11 1.77  18 1.77  52 1.78  60 1.78
 101  0.838  0.498  0.498-  72 1.66  32 1.74  14 1.77  23 1.77  53 1.78  61 1.78
 102  0.838  0.498  0.998-  71 1.66  31 1.74  13 1.77  24 1.77  54 1.78  62 1.78
 103  0.838  0.998  0.498-  70 1.66  30 1.74  16 1.77  21 1.77  55 1.78  63 1.78
 104  0.838  0.998  0.998-  69 1.66  29 1.74  15 1.77  22 1.77  56 1.78  64 1.78
 105  0.306  0.309  0.309-  89 1.44   1 1.61   9 1.62  17 1.62
 106  0.306  0.309  0.809-  90 1.44   2 1.61  10 1.62  18 1.62
 107  0.306  0.809  0.309-  91 1.44   3 1.61  11 1.62  19 1.62
 108  0.306  0.809  0.809-  92 1.44   4 1.61  12 1.62  20 1.62
 109  0.806  0.309  0.309-  93 1.44   5 1.61  13 1.62  21 1.62
 110  0.806  0.309  0.809-  94 1.44   6 1.61  14 1.62  22 1.62
 111  0.806  0.809  0.309-  95 1.44   7 1.61  15 1.62  23 1.62
 112  0.806  0.809  0.809-  96 1.44   8 1.61  16 1.62  24 1.62
 113  0.191  0.189  0.189-  89 1.43  25 1.59  33 1.61  41 1.61
 114  0.191  0.189  0.689-  90 1.43  26 1.59  34 1.61  42 1.61
 115  0.191  0.689  0.189-  91 1.43  27 1.59  35 1.61  43 1.61
 116  0.191  0.689  0.689-  92 1.43  28 1.59  36 1.61  44 1.61
 117  0.691  0.189  0.189-  93 1.43  29 1.59  37 1.61  45 1.61
 118  0.691  0.189  0.689-  94 1.43  30 1.59  38 1.61  46 1.61
 119  0.691  0.689  0.189-  95 1.43  31 1.59  39 1.61  47 1.61
 120  0.691  0.689  0.689-  96 1.43  32 1.59  40 1.61  48 1.61
 
  LATTYP: Found a base centered monoclinic cell.
 ALAT       =    17.5191754520
 B/A-ratio  =     0.6417943845
 C/A-ratio  =     0.5791019949
 COS(beta)  =    -0.4855437661
  
  Lattice vectors:
  
 A1 = (  -2.6767470000,  -9.0995700000,  -4.2858470000)
 A2 = (   0.0514440000,  -0.0720330000, -10.4080630000)
 A3 = (   9.2390870000,   0.0501890000,   4.1911430000)


Analysis of symmetry for initial positions (statically):
=====================================================================
 Subroutine PRICEL returns following result:
 
  LATTYP: Found a base centered monoclinic cell.
 ALAT       =     8.7595877260
 B/A-ratio  =     0.6417943845
 C/A-ratio  =     0.5791019949
 COS(beta)  =    -0.4855437661
  
  Lattice vectors:
  
 A1 = (  -1.3383735000,  -4.5497850000,  -2.1429235000)
 A2 = (   0.0257220000,  -0.0360165000,  -5.2040315000)
 A3 = (   4.6195435000,   0.0250945000,   2.0955715000)
 
   8 primitive cells build up your supercell.
 

 Routine SETGRP: Setting up the symmetry group for a 
 base centered monoclinic supercell.


 Subroutine GETGRP returns: Found  2 space group operations
 (whereof  2 operations were pure point group operations)
 out of a pool of  4 trial point group operations.


The static configuration has the point symmetry C_1h.


Analysis of symmetry for dynamics (positions and initial velocities):
=====================================================================
 Subroutine PRICEL returns following result:
 
  LATTYP: Found a base centered monoclinic cell.
 ALAT       =     8.7595877260
 B/A-ratio  =     0.6417943845
 C/A-ratio  =     0.5791019949
 COS(beta)  =    -0.4855437661
  
  Lattice vectors:
  
 A1 = (  -1.3383735000,  -4.5497850000,  -2.1429235000)
 A2 = (   0.0257220000,  -0.0360165000,  -5.2040315000)
 A3 = (   4.6195435000,   0.0250945000,   2.0955715000)
 
   8 primitive cells build up your supercell.
 

 Routine SETGRP: Setting up the symmetry group for a 
 base centered monoclinic supercell.


 Subroutine GETGRP returns: Found  2 space group operations
 (whereof  2 operations were pure point group operations)
 out of a pool of  4 trial point group operations.


The dynamic configuration has the point symmetry C_1h.


 Subroutine INISYM returns: Found  2 space group operations
 (whereof  2 operations are pure point group operations),
 and found     8 'primitive' translations


----------------------------------------------------------------------------------------

                                     Primitive cell                                     

  volume of cell :     109.1915

  direct lattice vectors                    reciprocal lattice vectors
    -1.338373500 -4.549785000 -2.142923500     0.000504777 -0.220659550  0.001529654
     0.025722000 -0.036016500 -5.204031500     0.086825644  0.064974559 -0.192179242
     4.619543500  0.025094500  2.095571500     0.216134398 -0.064291238  0.001513241

  length of vectors
     5.204220239  5.204219698  5.072694727     0.220665430  0.220665463  0.225498849

  position of ions in fractional coordinates (direct lattice)
     0.192484000  0.192484000  0.315846000
     0.195324000  0.685560000  0.803264000
     0.685560000  0.195324000  0.803264000
     0.806670000  0.806670000  0.682732000
     0.806328000  0.312578000  0.197400000
     0.312578000  0.806328000  0.197400000
     0.005202000  0.326404000  0.988894000
     0.326404000  0.005202000  0.988894000
     0.994100000  0.994100000  0.341590000
     0.994490000  0.671276000  0.006950000
     0.671276000  0.994490000  0.006950000
     0.501982000  0.501982000  0.495990000
     0.004144000  0.004144000  0.676672000
     0.381126000  0.381126000  0.612176000
     0.622330000  0.622330000  0.381978000

  ion indices of the primitive-cell ions
   primitive index   ion index
                 1           1
                 2           9
                 3          17
                 4          28
                 5          35
                 6          42
                 7          53
                 8          61
                 9          68
                10          75
                11          82
                12          89
                13          97
                14         105
                15         113

----------------------------------------------------------------------------------------

 
 -----------------------------------------------------------------------------
|                                                                             |
|           W    W    AA    RRRRR   N    N  II  N    N   GGGG   !!!           |
|           W    W   A  A   R    R  NN   N  II  NN   N  G    G  !!!           |
|           W    W  A    A  R    R  N N  N  II  N N  N  G       !!!           |
|           W WW W  AAAAAA  RRRRR   N  N N  II  N  N N  G  GGG   !            |
|           WW  WW  A    A  R   R   N   NN  II  N   NN  G    G                |
|           W    W  A    A  R    R  N    N  II  N    N   GGGG   !!!           |
|                                                                             |
|     The requested file  could not be found or opened for reading            |
|     k-point information. Automatic k-point generation is used as a          |
|     fallback, which may lead to unwanted results.                           |
|                                                                             |
 -----------------------------------------------------------------------------

 

Automatic generation of k-mesh.
 Grid dimensions derived from KSPACING:
 generate k-points for:    2    2    2

 Generating k-lattice:

  Cartesian coordinates                     Fractional coordinates (reciprocal lattice)
     0.054033599 -0.016072809  0.000378310     0.500000000  0.000000000  0.000000000
    -0.000126194  0.055164888 -0.000382414    -0.000000000  0.500000000 -0.000000000
    -0.021706411 -0.016243640  0.048044810     0.000000000  0.000000000  0.500000000

  Length of vectors
     0.056374712  0.055166357  0.055166366

  Shift w.r.t. Gamma in fractional coordinates (k-lattice)
     0.000000000  0.000000000  0.000000000

 TETIRR: Found     12 inequivalent tetrahedra from       48
 
 Subroutine IBZKPT returns following result:
 ===========================================
 
 Found      6 irreducible k-points:
 
 Following reciprocal coordinates:
            Coordinates               Weight
  0.000000  0.000000  0.000000      1.000000
  0.500000  0.000000  0.000000      1.000000
  0.000000  0.500000  0.000000      2.000000
  0.500000  0.500000  0.000000      2.000000
  0.000000  0.500000  0.500000      1.000000
  0.500000  0.500000  0.500000      1.000000
 
 Following cartesian coordinates:
            Coordinates               Weight
  0.000000  0.000000  0.000000      1.000000
  0.054034 -0.016073  0.000378      1.000000
 -0.000126  0.055165 -0.000382      2.000000
  0.053907  0.039092 -0.000004      2.000000
 -0.021833  0.038921  0.047662      1.000000
  0.032201  0.022848  0.048041      1.000000
 


--------------------------------------------------------------------------------------------------------




 Dimension of arrays:
   k-points           NKPTS =      6   k-points in BZ     NKDIM =      6   number of bands    NBANDS=    253
   number of dos      NEDOS =    301   number of ions     NIONS =    120
   non local maximal  LDIM  =      4   non local SUM 2l+1 LMDIM =      8
   total plane-waves  NPLWV = 729000
   max r-space proj   IRMAX =   5233   max aug-charges    IRDMAX=  13212
   dimension x,y,z NGX =    90 NGY =   90 NGZ =   90
   dimension x,y,z NGXF=   180 NGYF=  180 NGZF=  180
   support grid    NGXF=   180 NGYF=  180 NGZF=  180
   ions per type =              96  24
   NGX,Y,Z   is equivalent  to a cutoff of  14.75, 14.38, 14.38 a.u.
   NGXF,Y,Z  is equivalent  to a cutoff of  29.50, 28.75, 28.75 a.u.

 SYSTEM =  unknown system                          
 POSCAR =  B96 C24                                 

 Startparameter for this run:
   NWRITE =      2    write-flag & timer
   PREC   = accura    normal or accurate (medium, high low for compatibility)
   ISTART =      0    job   : 0-new  1-cont  2-samecut
   ICHARG =      2    charge: 1-file 2-atom 10-const
   ISPIN  =      1    spin polarized calculation?
   LNONCOLLINEAR =      F non collinear calculations
   LSORBIT =      F    spin-orbit coupling
   INIWAV =      1    electr: 0-lowe 1-rand  2-diag
   LASPH  =      F    aspherical Exc in radial PAW
   METAGGA=      F    non-selfconsistent MetaGGA calc.

 Electronic Relaxation 1
   ENCUT  =  700.0 eV  51.45 Ry    7.17 a.u.  21.89 22.45 22.45*2*pi/ulx,y,z
   ENINI  =  700.0     initial cutoff
   ENAUG  =  644.9 eV  augmentation charge cutoff
   NELM   =     60;   NELMIN=  2; NELMDL= -5     # of ELM steps 
   EDIFF  = 0.1E-05   stopping-criterion for ELM
   LREAL  =      T    real-space projection
   NLSPLINE    = F    spline interpolate recip. space projectors
   LCOMPAT=      F    compatible to vasp.4.4
   GGA_COMPAT  = T    GGA compatible to vasp.4.4-vasp.4.6
   LMAXPAW     = -100 max onsite density
   LMAXMIX     =    2 max onsite mixed and CHGCAR
   VOSKOWN=      0    Vosko Wilk Nusair interpolation
   ROPT   =   -0.00025  -0.00025
 Ionic relaxation
   EDIFFG = 0.1E-04   stopping-criterion for IOM
   NSW    =    300    number of steps for IOM
   NBLOCK =      1;   KBLOCK =    300    inner block; outer block 
   IBRION =      2    ionic relax: 0-MD 1-quasi-New 2-CG
   NFREE  =      1    steps in history (QN), initial steepest desc. (CG)
   ISIF   =      4    stress and relaxation
   IWAVPR =     11    prediction:  0-non 1-charg 2-wave 3-comb
   ISYM   =      2    0-nonsym 1-usesym 2-fastsym
   LCORR  =      T    Harris-Foulkes like correction to forces

   POTIM  = 0.5000    time-step for ionic-motion
   TEIN   =    0.0    initial temperature
   TEBEG  =    0.0;   TEEND  =   0.0 temperature during run
   SMASS  =  -3.00    Nose mass-parameter (am)
   estimated Nose-frequenzy (Omega)   =  0.10E-29 period in steps = 0.13E+47 mass=  -0.235E-26a.u.
   SCALEE = 1.0000    scale energy and forces
   NPACO  =    256;   APACO  = 16.0  distance and # of slots for P.C.
   PSTRESS=    0.0 pullay stress

  Mass of Ions in am
   POMASS =  10.81 12.01
  Ionic Valenz
   ZVAL   =   3.00  4.00
  Atomic Wigner-Seitz radii
   RWIGS  =  -1.00 -1.00
  virtual crystal weights 
   VCA    =   1.00  1.00
   NELECT =     384.0000    total number of electrons
   NUPDOWN=      -1.0000    fix difference up-down

 DOS related values:
   EMIN   =  10.00;   EMAX   =-10.00  energy-range for DOS
   EFERMI =   0.00
   ISMEAR =    -5;   SIGMA  =   0.05  broadening in eV -4-tet -1-fermi 0-gaus

 Electronic relaxation 2 (details)
   IALGO  =     68    algorithm
   LDIAG  =      T    sub-space diagonalisation (order eigenvalues)
   LSUBROT=      F    optimize rotation matrix (better conditioning)
   TURBO    =      0    0=normal 1=particle mesh
   IRESTART =      0    0=no restart 2=restart with 2 vectors
   NREBOOT  =      0    no. of reboots
   NMIN     =      0    reboot dimension
   EREF     =   0.00    reference energy to select bands
   IMIX   =      4    mixing-type and parameters
     AMIX     =   0.40;   BMIX     =  1.00
     AMIX_MAG =   1.60;   BMIX_MAG =  1.00
     AMIN     =   0.10
     WC   =   100.;   INIMIX=   1;  MIXPRE=   1;  MAXMIX= -45

 Intra band minimization:
   WEIMIN = 0.0010     energy-eigenvalue tresh-hold
   EBREAK =  0.99E-09  absolut break condition
   DEPER  =   0.30     relativ break condition  

   TIME   =   0.40     timestep for ELM

  volume/ion in A,a.u.               =       7.28        49.12
  Fermi-wavevector in a.u.,A,eV,Ry     =   1.244779  2.352291 21.081886  1.549475
  Thomas-Fermi vector in A             =   2.379031
 
 Write flags
   LWAVE        =      F    write WAVECAR
   LDOWNSAMPLE  =      F    k-point downsampling of WAVECAR
   LCHARG       =      T    write CHGCAR
   LVTOT        =      F    write LOCPOT, total local potential
   LVHAR        =      F    write LOCPOT, Hartree potential only
   LELF         =      F    write electronic localiz. function (ELF)
   LORBIT       =      0    0 simple, 1 ext, 2 COOP (PROOUT), +10 PAW based schemes


 Dipole corrections
   LMONO  =      F    monopole corrections only (constant potential shift)
   LDIPOL =      F    correct potential (dipole corrections)
   IDIPOL =      0    1-x, 2-y, 3-z, 4-all directions 
   EPSILON=  1.0000000 bulk dielectric constant

 Exchange correlation treatment:
   GGA     =    --    GGA type
   LEXCH   =     8    internal setting for exchange type
   VOSKOWN=      0    Vosko Wilk Nusair interpolation
   LHFCALC =     F    Hartree Fock is set to
   LHFONE  =     F    Hartree Fock one center treatment
   AEXX    =    0.0000 exact exchange contribution

 Linear response parameters
   LEPSILON=     F    determine dielectric tensor
   LRPA    =     F    only Hartree local field effects (RPA)
   LNABLA  =     F    use nabla operator in PAW spheres
   LVEL    =     F    velocity operator in full k-point grid
   LINTERFAST=   F  fast interpolation
   KINTER  =     0    interpolate to denser k-point grid
   CSHIFT  =0.1000    complex shift for real part using Kramers Kronig
   OMEGAMAX=  -1.0    maximum frequency
   DEG_THRESHOLD= 0.2000000E-02 threshold for treating states as degnerate
   RTIME   =   -0.100 relaxation time in fs
  (WPLASMAI=    0.000 imaginary part of plasma frequency in eV, 0.658/RTIME)
   DFIELD  = 0.0000000 0.0000000 0.0000000 field for delta impulse in time
 
 Orbital magnetization related:
   ORBITALMAG=     F  switch on orbital magnetization
   LCHIMAG   =     F  perturbation theory with respect to B field
   DQ        =  0.001000  dq finite difference perturbation B field
   LLRAUG    =     F  two centre corrections for induced B field



--------------------------------------------------------------------------------------------------------


 conjugate gradient relaxation of ions
 charge density and potential will be updated during run
 non-spin polarized calculation
 RMM-DIIS sequential band-by-band and
  variant of blocked Davidson during initial phase
 perform sub-space diagonalisation
    before iterative eigenvector-optimisation
 modified Broyden-mixing scheme, WC =      100.0
 initial mixing is a Kerker type mixing with AMIX =  0.4000 and BMIX =      1.0000
 Hartree-type preconditioning will be used
 using additional bands            61
 real space projection scheme for non local part
 use partial core corrections
 calculate Harris-corrections to forces 
   (improved forces if not selfconsistent)
 use gradient corrections 
 use of overlap-Matrix (Vanderbilt PP)
 Fermi weights with tetrahedron method with Bloechl corrections


--------------------------------------------------------------------------------------------------------


  energy-cutoff  :      700.00
  volume of cell :      873.53
      direct lattice vectors                 reciprocal lattice vectors
     9.239087000  0.050189000  4.191143000     0.108067199 -0.032145619  0.000756621
     2.676747000  9.099570000  4.285847000    -0.000252389  0.110329775 -0.000764827
    -0.051444000  0.072033000 10.408063000    -0.043412822 -0.032487279  0.096089621

  length of vectors
    10.145389454 10.408440478 10.408439396     0.112749425  0.110332715  0.110332732


 
 k-points in units of 2pi/SCALE and weight: read from INCAR                         
   0.00000000  0.00000000  0.00000000       0.125
   0.05403360 -0.01607281  0.00037831       0.125
  -0.00012619  0.05516489 -0.00038241       0.250
   0.05390741  0.03909208 -0.00000410       0.250
  -0.02183261  0.03892125  0.04766240       0.125
   0.03220099  0.02284844  0.04804071       0.125
 
 k-points in reciprocal lattice and weights: read from INCAR                         
   0.00000000  0.00000000  0.00000000       0.125
   0.50000000  0.00000000  0.00000000       0.125
   0.00000000  0.50000000  0.00000000       0.250
   0.50000000  0.50000000  0.00000000       0.250
   0.00000000  0.50000000  0.50000000       0.125
   0.50000000  0.50000000  0.50000000       0.125
 
 position of ions in fractional coordinates (direct lattice) 
   0.15792300  0.40375800  0.40375800
   0.15792300  0.40375800  0.90375800
   0.15792300  0.90375800  0.40375800
   0.15792300  0.90375800  0.90375800
   0.65792300  0.40375800  0.40375800
   0.65792300  0.40375800  0.90375800
   0.65792300  0.90375800  0.40375800
   0.65792300  0.90375800  0.90375800
   0.40163200  0.40233800  0.15722000
   0.40163200  0.40233800  0.65722000
   0.40163200  0.90233800  0.15722000
   0.40163200  0.90233800  0.65722000
   0.90163200  0.40233800  0.15722000
   0.90163200  0.40233800  0.65722000
   0.90163200  0.90233800  0.15722000
   0.90163200  0.90233800  0.65722000
   0.40163200  0.15722000  0.40233800
   0.40163200  0.15722000  0.90233800
   0.40163200  0.65722000  0.40233800
   0.40163200  0.65722000  0.90233800
   0.90163200  0.15722000  0.40233800
   0.90163200  0.15722000  0.90233800
   0.90163200  0.65722000  0.40233800
   0.90163200  0.65722000  0.90233800
   0.34136600  0.09666500  0.09666500
   0.34136600  0.09666500  0.59666500
   0.34136600  0.59666500  0.09666500
   0.34136600  0.59666500  0.59666500
   0.84136600  0.09666500  0.09666500
   0.84136600  0.09666500  0.59666500
   0.84136600  0.59666500  0.09666500
   0.84136600  0.59666500  0.59666500
   0.09870000  0.09683600  0.34371100
   0.09870000  0.09683600  0.84371100
   0.09870000  0.59683600  0.34371100
   0.09870000  0.59683600  0.84371100
   0.59870000  0.09683600  0.34371100
   0.59870000  0.09683600  0.84371100
   0.59870000  0.59683600  0.34371100
   0.59870000  0.59683600  0.84371100
   0.09870000  0.34371100  0.09683600
   0.09870000  0.34371100  0.59683600
   0.09870000  0.84371100  0.09683600
   0.09870000  0.84371100  0.59683600
   0.59870000  0.34371100  0.09683600
   0.59870000  0.34371100  0.59683600
   0.59870000  0.84371100  0.09683600
   0.59870000  0.84371100  0.59683600
   0.49444700  0.49739900  0.33679800
   0.49444700  0.49739900  0.83679800
   0.49444700  0.99739900  0.33679800
   0.49444700  0.99739900  0.83679800
   0.99444700  0.49739900  0.33679800
   0.99444700  0.49739900  0.83679800
   0.99444700  0.99739900  0.33679800
   0.99444700  0.99739900  0.83679800
   0.49444700  0.33679800  0.49739900
   0.49444700  0.33679800  0.99739900
   0.49444700  0.83679800  0.49739900
   0.49444700  0.83679800  0.99739900
   0.99444700  0.33679800  0.49739900
   0.99444700  0.33679800  0.99739900
   0.99444700  0.83679800  0.49739900
   0.99444700  0.83679800  0.99739900
   0.17079500  0.00295000  0.00295000
   0.17079500  0.00295000  0.50295000
   0.17079500  0.50295000  0.00295000
   0.17079500  0.50295000  0.50295000
   0.67079500  0.00295000  0.00295000
   0.67079500  0.00295000  0.50295000
   0.67079500  0.50295000  0.00295000
   0.67079500  0.50295000  0.50295000
   0.00347500  0.00275500  0.16436200
   0.00347500  0.00275500  0.66436200
   0.00347500  0.50275500  0.16436200
   0.00347500  0.50275500  0.66436200
   0.50347500  0.00275500  0.16436200
   0.50347500  0.00275500  0.66436200
   0.50347500  0.50275500  0.16436200
   0.50347500  0.50275500  0.66436200
   0.00347500  0.16436200  0.00275500
   0.00347500  0.16436200  0.50275500
   0.00347500  0.66436200  0.00275500
   0.00347500  0.66436200  0.50275500
   0.50347500  0.16436200  0.00275500
   0.50347500  0.16436200  0.50275500
   0.50347500  0.66436200  0.00275500
   0.50347500  0.66436200  0.50275500
   0.24799500  0.24900900  0.24900900
   0.24799500  0.24900900  0.74900900
   0.24799500  0.74900900  0.24900900
   0.24799500  0.74900900  0.74900900
   0.74799500  0.24900900  0.24900900
   0.74799500  0.24900900  0.74900900
   0.74799500  0.74900900  0.24900900
   0.74799500  0.74900900  0.74900900
   0.33833600  0.49792800  0.49792800
   0.33833600  0.49792800  0.99792800
   0.33833600  0.99792800  0.49792800
   0.33833600  0.99792800  0.99792800
   0.83833600  0.49792800  0.49792800
   0.83833600  0.49792800  0.99792800
   0.83833600  0.99792800  0.49792800
   0.83833600  0.99792800  0.99792800
   0.30608800  0.30943700  0.30943700
   0.30608800  0.30943700  0.80943700
   0.30608800  0.80943700  0.30943700
   0.30608800  0.80943700  0.80943700
   0.80608800  0.30943700  0.30943700
   0.80608800  0.30943700  0.80943700
   0.80608800  0.80943700  0.30943700
   0.80608800  0.80943700  0.80943700
   0.19098900  0.18883500  0.18883500
   0.19098900  0.18883500  0.68883500
   0.19098900  0.68883500  0.18883500
   0.19098900  0.68883500  0.68883500
   0.69098900  0.18883500  0.18883500
   0.69098900  0.18883500  0.68883500
   0.69098900  0.68883500  0.18883500
   0.69098900  0.68883500  0.68883500
 
 position of ions in cartesian coordinates  (Angst):
   2.51905142  3.71103408  6.59466159
   2.49332942  3.74705058 11.79869309
   3.85742492  8.26081908  8.73758509
   3.83170292  8.29683558 13.94161659
   7.13859492  3.73612858  8.69023309
   7.11287292  3.77214508 13.89426459
   8.47696842  8.28591358 10.83315659
   8.45124642  8.32193008 16.03718809
   4.77958200  3.69258533  5.04401192
   4.75386000  3.72860183 10.24804342
   6.11795550  8.24237033  7.18693542
   6.09223350  8.27838683 12.39096692
   9.39912550  3.71767983  7.13958342
   9.37340350  3.75369633 12.34361492
  10.73749900  8.26746483  9.28250692
  10.71177700  8.30348133 14.48653842
   4.11085328  1.47977352  6.54467726
   4.08513128  1.51579002 11.74870876
   5.44922678  6.02955852  8.68760076
   5.42350478  6.06557502 13.89163226
   8.73039678  1.50486802  8.64024876
   8.70467478  1.54088452 13.84428026
  10.06877028  6.05465302 10.78317226
  10.04304828  6.09066952 15.98720376
   3.40768509  0.90370582  2.85110053
   3.38196309  0.93972232  8.05513203
   4.74605859  5.45349082  4.99402403
   4.72033659  5.48950732 10.19805553
   8.02722859  0.92880032  4.94667203
   8.00150659  0.96481682 10.15070353
   9.36560209  5.47858532  7.08959553
   9.33988009  5.51460182 12.29362703
   1.15342149  0.91087815  4.40605584
   1.12769949  0.94689465  9.61008734
   2.49179499  5.46066315  6.54897934
   2.46607299  5.49667965 11.75301084
   5.77296499  0.93597265  6.50162734
   5.74724299  0.97198915 11.70565884
   7.11133849  5.48575765  8.64455084
   7.08561649  5.52177415 13.84858234
   1.82694364  3.13955135  2.89463376
   1.80122164  3.17556785  8.09866526
   3.16531714  7.68933635  5.03755726
   3.13959514  7.72535285 10.24158876
   6.44648714  3.16464585  4.99020526
   6.42076514  3.20066235 10.19423676
   7.78486064  7.71443085  7.13312876
   7.75913864  7.75044735 12.33716026
   5.88232389  4.57519339  7.70948890
   5.85660189  4.61120989 12.91352040
   7.22069739  9.12497839  9.85241240
   7.19497539  9.16099489 15.05644390
  10.50186739  4.60028789  9.80506040
  10.47614539  4.63630439 15.00909190
  11.84024089  9.15007289 11.94798390
  11.81451889  9.18608939 17.15201540
   5.44417369  3.12536192  8.69272291
   5.41845169  3.16137842 13.89675441
   6.78254719  7.67514692 10.83564641
   6.75682519  7.71116342 16.03967791
  10.06371719  3.15045642 10.78829441
  10.03799519  3.18647292 15.99232591
  11.40209069  7.70024142 12.93121791
  11.37636869  7.73625792 18.13524941
   1.58573451  0.03562826  0.75917330
   1.56001251  0.07164476  5.96320480
   2.92410801  4.58541326  2.90209680
   2.89838601  4.62142976  8.10612830
   6.20527801  0.06072276  2.85474480
   6.17955601  0.09673926  8.05877630
   7.54365151  4.61050776  4.99766830
   7.51792951  4.64652426 10.20169980
   0.03102483  0.03708321  1.73706178
   0.00530283  0.07309971  6.94109328
   1.36939833  4.58686821  3.87998528
   1.34367633  4.62288471  9.08401678
   4.65056833  0.06217771  3.83263328
   4.62484633  0.09819421  9.03666478
   5.98894183  4.61196271  5.97555678
   5.96321983  4.64797921 11.17958828
   0.47191959  1.49599638  0.74766882
   0.44619759  1.53201288  5.95170032
   1.81029309  6.04578138  2.89059232
   1.78457109  6.08179788  8.09462382
   5.09146309  1.52109088  2.84324032
   5.06574109  1.55710738  8.04727182
   6.42983659  6.07087588  4.98616382
   6.40411459  6.10689238 10.19019532
   2.94497146  2.29625831  4.69829834
   2.91924946  2.33227481  9.90232984
   4.28334496  6.84604331  6.84122184
   4.25762296  6.88205981 12.04525334
   7.56451496  2.32135281  6.79386984
   7.53879296  2.35736931 11.99790134
   8.90288846  6.87113781  8.93679334
   8.87716646  6.90715431 14.14082484
   4.43312761  4.58377868  8.73452378
   4.40740561  4.61979518 13.93855528
   5.77150111  9.13356368 10.87744728
   5.74577911  9.16958018 16.08147878
   9.05267111  4.60887318 10.83009528
   9.02694911  4.64488968 16.03412678
  10.39104461  9.15865818 12.97301878
  10.36532261  9.19467468 18.17705028
   3.64033955  2.85339557  5.82969801
   3.61461755  2.88941207 11.03372951
   4.97871305  7.40318057  7.97262151
   4.95299105  7.43919707 13.17665301
   8.25988305  2.87849007  7.92526951
   8.23416105  2.91450657 13.12930101
   9.59825655  7.42827507 10.06819301
   9.57253455  7.46429157 15.27222451
   2.26031308  1.74150520  3.57518671
   2.23459108  1.77752170  8.77921821
   3.59868658  6.29129020  5.71811021
   3.57296458  6.32730670 10.92214171
   6.87985658  1.76659970  5.67075821
   6.85413458  1.80261620 10.87478971
   8.21823008  6.31638470  7.81368171
   8.19250808  6.35240120 13.01771321
 


--------------------------------------------------------------------------------------------------------


 k-point   1 :   0.0000 0.0000 0.0000  plane waves:   36723
 k-point   2 :   0.5000 0.0000 0.0000  plane waves:   36756
 k-point   3 :   0.0000 0.5000 0.0000  plane waves:   36728
 k-point   4 :   0.5000 0.5000 0.0000  plane waves:   36752
 k-point   5 :   0.0000 0.5000 0.5000  plane waves:   36708
 k-point   6 :   0.5000 0.5000 0.5000  plane waves:   36722

 maximum and minimum number of plane-waves per node :     36756    36708

 maximum number of plane-waves:     36756
 maximum index in each direction: 
   IXMAX=   21   IYMAX=   22   IZMAX=   22
   IXMIN=  -22   IYMIN=  -22   IZMIN=  -22


 serial   3D FFT for wavefunctions
 parallel 3D FFT for charge:
    minimum data exchange during FFTs selected (reduces bandwidth)


 total amount of memory used by VASP MPI-rank0  1557237. kBytes
=======================================================================

   base      :      30000. kBytes
   nonlr-proj:      51734. kBytes
   fftplans  :     200616. kBytes
   grid      :     358473. kBytes
   one-center:        368. kBytes
   wavefun   :     916046. kBytes
 
     INWAV:  cpu time    0.0002: real time    0.0003
 Broyden mixing: mesh for mixing (old mesh)
   NGX = 43   NGY = 45   NGZ = 45
  (NGX  =180   NGY  =180   NGZ  =180)
  gives a total of  87075 points

 initial charge density was supplied:
 charge density of overlapping atoms calculated
 number of electron     384.0000000 magnetization 
 keeping initial charge density in first step


--------------------------------------------------------------------------------------------------------


 Maximum index for non-local projection operator          5037
 Maximum index for augmentation-charges         12639 (set IRDMAX)


--------------------------------------------------------------------------------------------------------


 First call to EWALD:  gamma=   0.185
 Maximum number of real-space cells 3x 3x 3
 Maximum number of reciprocal cells 3x 3x 3

    FEWALD:  cpu time    0.0774: real time    0.0774


--------------------------------------- Iteration      1(   1)  ---------------------------------------


    POTLOK:  cpu time    0.1394: real time    1.1866
    SETDIJ:  cpu time    0.1315: real time    0.1314
     EDDAV:  cpu time    4.9947: real time    4.9942
 BZINTS: Fermi energy:   17.504385;  384.000000 electrons
         Band energy: 0.159926E+04;  BLOECHL correction:   -0.043829
       DOS:  cpu time    0.0167: real time    0.0167
    --------------------------------------------
      LOOP:  cpu time    5.2823: real time    6.3289

 eigenvalue-minimisations  :  3036
 total energy-change (2. order) : 0.1534317E+04  (-0.2191934E+05)
 number of electron     384.0000000 magnetization 
 augmentation part      384.0000000 magnetization 

 Free energy of the ion-electron system (eV)
  ---------------------------------------------------
  alpha Z        PSCENC =      1184.40993130
  Ewald energy   TEWEN  =    -11622.19771033
  -Hartree energ DENC   =     -1075.09491250
  -exchange      EXHF   =         0.00000000
  -V(xc)+E(xc)   XCENC  =      1015.51328297
  PAW double counting   =      6780.51620165    -6712.07122612
  entropy T*S    EENTRO =         0.00000000
  eigenvalues    EBANDS =      1599.26451674
  atomic energy  EATOM  =     10363.97701633
  Solvation  Ediel_sol  =         0.00000000
  ---------------------------------------------------
  free energy    TOTEN  =      1534.31710005 eV

  energy without entropy =     1534.31710005  energy(sigma->0) =     1534.31710005


--------------------------------------------------------------------------------------------------------




--------------------------------------- Iteration      1(   2)  ---------------------------------------


     EDDAV:  cpu time    5.7309: real time    5.7295
 BZINTS: Fermi energy:    5.201699;  384.000000 electrons
         Band energy:-0.715391E+03;  BLOECHL correction:    0.000000
       DOS:  cpu time    0.0108: real time    0.0108
    --------------------------------------------
      LOOP:  cpu time    5.7417: real time    5.7403

 eigenvalue-minimisations  :  3690
 total energy-change (2. order) :-0.2314655E+04  (-0.2178108E+04)
 number of electron     384.0000000 magnetization 
 augmentation part      384.0000000 magnetization 

 Free energy of the ion-electron system (eV)
  ---------------------------------------------------
  alpha Z        PSCENC =      1184.40993130
  Ewald energy   TEWEN  =    -11622.19771033
  -Hartree energ DENC   =     -1075.09491250
  -exchange      EXHF   =         0.00000000
  -V(xc)+E(xc)   XCENC  =      1015.51328297
  PAW double counting   =      6780.51620165    -6712.07122612
  entropy T*S    EENTRO =         0.00000000
  eigenvalues    EBANDS =      -715.39059169
  atomic energy  EATOM  =     10363.97701633
  Solvation  Ediel_sol  =         0.00000000
  ---------------------------------------------------
  free energy    TOTEN  =      -780.33800839 eV

  energy without entropy =     -780.33800839  energy(sigma->0) =     -780.33800839


--------------------------------------------------------------------------------------------------------




--------------------------------------- Iteration      1(   3)  ---------------------------------------


     EDDAV:  cpu time    5.7422: real time    5.7409
 BZINTS: Fermi energy:    3.705547;  384.000000 electrons
         Band energy:-0.862726E+03;  BLOECHL correction:    0.000000
       DOS:  cpu time    0.0116: real time    0.0115
    --------------------------------------------
      LOOP:  cpu time    5.7538: real time    5.7524

 eigenvalue-minimisations  :  3664
 total energy-change (2. order) :-0.1473349E+03  (-0.1449689E+03)
 number of electron     384.0000000 magnetization 
 augmentation part      384.0000000 magnetization 

 Free energy of the ion-electron system (eV)
  ---------------------------------------------------
  alpha Z        PSCENC =      1184.40993130
  Ewald energy   TEWEN  =    -11622.19771033
  -Hartree energ DENC   =     -1075.09491250
  -exchange      EXHF   =         0.00000000
  -V(xc)+E(xc)   XCENC  =      1015.51328297
  PAW double counting   =      6780.51620165    -6712.07122612
  entropy T*S    EENTRO =         0.00000000
  eigenvalues    EBANDS =      -862.72552979
  atomic energy  EATOM  =     10363.97701633
  Solvation  Ediel_sol  =         0.00000000
  ---------------------------------------------------
  free energy    TOTEN  =      -927.67294648 eV

  energy without entropy =     -927.67294648  energy(sigma->0) =     -927.67294648


--------------------------------------------------------------------------------------------------------




--------------------------------------- Iteration      1(   4)  ---------------------------------------


     EDDAV:  cpu time    5.6459: real time    5.6451
 BZINTS: Fermi energy:    3.662922;  384.000000 electrons
         Band energy:-0.866477E+03;  BLOECHL correction:    0.000000
       DOS:  cpu time    0.0121: real time    0.0121
    --------------------------------------------
      LOOP:  cpu time    5.6580: real time    5.6572

 eigenvalue-minimisations  :  3624
 total energy-change (2. order) :-0.3751149E+01  (-0.3726251E+01)
 number of electron     384.0000000 magnetization 
 augmentation part      384.0000000 magnetization 

 Free energy of the ion-electron system (eV)
  ---------------------------------------------------
  alpha Z        PSCENC =      1184.40993130
  Ewald energy   TEWEN  =    -11622.19771033
  -Hartree energ DENC   =     -1075.09491250
  -exchange      EXHF   =         0.00000000
  -V(xc)+E(xc)   XCENC  =      1015.51328297
  PAW double counting   =      6780.51620165    -6712.07122612
  entropy T*S    EENTRO =         0.00000000
  eigenvalues    EBANDS =      -866.47667843
  atomic energy  EATOM  =     10363.97701633
  Solvation  Ediel_sol  =         0.00000000
  ---------------------------------------------------
  free energy    TOTEN  =      -931.42409512 eV

  energy without entropy =     -931.42409512  energy(sigma->0) =     -931.42409512


--------------------------------------------------------------------------------------------------------




--------------------------------------- Iteration      1(   5)  ---------------------------------------


     EDDAV:  cpu time    5.6365: real time    5.6358
 BZINTS: Fermi energy:    3.660941;  384.000000 electrons
         Band energy:-0.866583E+03;  BLOECHL correction:    0.000000
       DOS:  cpu time    0.0120: real time    0.0120
    CHARGE:  cpu time    1.6214: real time    1.6209
    MIXING:  cpu time    0.0684: real time    0.0684
    --------------------------------------------
      LOOP:  cpu time    7.3384: real time    7.3372

 eigenvalue-minimisations  :  3608
 total energy-change (2. order) :-0.1062635E+00  (-0.1060675E+00)
 number of electron     384.0000004 magnetization 
 augmentation part        1.9437637 magnetization 

 Broyden mixing:
  rms(total) = 0.40627E+01    rms(broyden)= 0.40627E+01
  rms(prec ) = 0.55481E+01
  weight for this iteration     100.00

 Free energy of the ion-electron system (eV)
  ---------------------------------------------------
  alpha Z        PSCENC =      1184.40993130
  Ewald energy   TEWEN  =    -11622.19771033
  -Hartree energ DENC   =     -1075.09491250
  -exchange      EXHF   =         0.00000000
  -V(xc)+E(xc)   XCENC  =      1015.51328297
  PAW double counting   =      6780.51620165    -6712.07122612
  entropy T*S    EENTRO =         0.00000000
  eigenvalues    EBANDS =      -866.58294192
  atomic energy  EATOM  =     10363.97701633
  Solvation  Ediel_sol  =         0.00000000
  ---------------------------------------------------
  free energy    TOTEN  =      -931.53035862 eV

  energy without entropy =     -931.53035862  energy(sigma->0) =     -931.53035862


--------------------------------------------------------------------------------------------------------




--------------------------------------- Iteration      1(   6)  ---------------------------------------


    POTLOK:  cpu time    0.1298: real time    0.1297
    SETDIJ:  cpu time    0.1186: real time    0.1186
    EDDIAG:  cpu time    1.0637: real time    1.0636
  RMM-DIIS:  cpu time    4.5188: real time    4.4659
    ORTHCH:  cpu time    0.0300: real time    0.0300
 BZINTS: Fermi energy:    4.394863;  384.000000 electrons
         Band energy:-0.605801E+03;  BLOECHL correction:   -0.000000
       DOS:  cpu time    0.0121: real time    0.0121
    CHARGE:  cpu time    1.5952: real time    1.5948
    MIXING:  cpu time    0.0703: real time    0.0703
    --------------------------------------------
      LOOP:  cpu time    7.5385: real time    7.4849

 eigenvalue-minimisations  :  3036
 total energy-change (2. order) : 0.4533186E+02  (-0.6435735E+01)
 number of electron     384.0000004 magnetization 
 augmentation part        1.6597605 magnetization 

 Broyden mixing:
  rms(total) = 0.21792E+01    rms(broyden)= 0.21792E+01
  rms(prec ) = 0.27837E+01
  weight for this iteration     100.00

 eigenvalues of (default mixing * dielectric matrix)
  average eigenvalue GAMMA=   1.9081
  1.9081

 Free energy of the ion-electron system (eV)
  ---------------------------------------------------
  alpha Z        PSCENC =      1184.40993130
  Ewald energy   TEWEN  =    -11622.19771033
  -Hartree energ DENC   =     -1300.40613608
  -exchange      EXHF   =         0.00000000
  -V(xc)+E(xc)   XCENC  =      1031.26856622
  PAW double counting   =     15117.23849830   -15054.68732495
  entropy T*S    EENTRO =         0.00000000
  eigenvalues    EBANDS =      -605.80133902
  atomic energy  EATOM  =     10363.97701633
  Solvation  Ediel_sol  =         0.00000000
  ---------------------------------------------------
  free energy    TOTEN  =      -886.19849823 eV

  energy without entropy =     -886.19849823  energy(sigma->0) =     -886.19849823


--------------------------------------------------------------------------------------------------------




--------------------------------------- Iteration      1(   7)  ---------------------------------------


    POTLOK:  cpu time    0.1238: real time    0.1238
    SETDIJ:  cpu time    0.1198: real time    0.1197
    EDDIAG:  cpu time    1.0646: real time    1.0643
  RMM-DIIS:  cpu time    4.5007: real time    4.4539
    ORTHCH:  cpu time    0.0299: real time    0.0299
 BZINTS: Fermi energy:    5.034861;  384.000000 electrons
         Band energy:-0.398836E+03;  BLOECHL correction:   -0.000000
       DOS:  cpu time    0.0126: real time    0.0126
    CHARGE:  cpu time    1.5723: real time    1.5719
    MIXING:  cpu time    0.0586: real time    0.0586
    --------------------------------------------
      LOOP:  cpu time    7.4822: real time    7.4348

 eigenvalue-minimisations  :  3036
 total energy-change (2. order) : 0.8207006E+01  (-0.5548337E+01)
 number of electron     384.0000004 magnetization 
 augmentation part        1.3182611 magnetization 

 Broyden mixing:
  rms(total) = 0.79116E+00    rms(broyden)= 0.79114E+00
  rms(prec ) = 0.94625E+00
  weight for this iteration     100.00

 eigenvalues of (default mixing * dielectric matrix)
  average eigenvalue GAMMA=   2.1936
  2.1936  2.1936

 Free energy of the ion-electron system (eV)
  ---------------------------------------------------
  alpha Z        PSCENC =      1184.40993130
  Ewald energy   TEWEN  =    -11622.19771033
  -Hartree energ DENC   =     -1510.10701438
  -exchange      EXHF   =         0.00000000
  -V(xc)+E(xc)   XCENC  =      1046.97645317
  PAW double counting   =     28735.28060143   -28677.49504320
  entropy T*S    EENTRO =         0.00000000
  eigenvalues    EBANDS =      -398.83572619
  atomic energy  EATOM  =     10363.97701633
  Solvation  Ediel_sol  =         0.00000000
  ---------------------------------------------------
  free energy    TOTEN  =      -877.99149187 eV

  energy without entropy =     -877.99149187  energy(sigma->0) =     -877.99149187


--------------------------------------------------------------------------------------------------------




--------------------------------------- Iteration      1(   8)  ---------------------------------------


    POTLOK:  cpu time    0.1240: real time    0.1240
    SETDIJ:  cpu time    0.1180: real time    0.1180
    EDDIAG:  cpu time    1.0693: real time    1.0693
  RMM-DIIS:  cpu time    4.5233: real time    4.4662
    ORTHCH:  cpu time    0.0299: real time    0.0299
 BZINTS: Fermi energy:    5.035061;  384.000000 electrons
         Band energy:-0.411859E+03;  BLOECHL correction:   -0.000000
       DOS:  cpu time    0.0122: real time    0.0122
    CHARGE:  cpu time    1.5893: real time    1.5828
    MIXING:  cpu time    0.0598: real time    0.0598
    --------------------------------------------
      LOOP:  cpu time    7.5258: real time    7.4623

 eigenvalue-minimisations  :  3036
 total energy-change (2. order) : 0.4027009E+00  (-0.7373314E+00)
 number of electron     384.0000004 magnetization 
 augmentation part        1.3185395 magnetization 

 Broyden mixing:
  rms(total) = 0.25637E+00    rms(broyden)= 0.25637E+00
  rms(prec ) = 0.40480E+00
  weight for this iteration     100.00

 eigenvalues of (default mixing * dielectric matrix)
  average eigenvalue GAMMA=   1.7943
  2.5608  1.4111  1.4111

 Free energy of the ion-electron system (eV)
  ---------------------------------------------------
  alpha Z        PSCENC =      1184.40993130
  Ewald energy   TEWEN  =    -11622.19771033
  -Hartree energ DENC   =     -1497.22270084
  -exchange      EXHF   =         0.00000000
  -V(xc)+E(xc)   XCENC  =      1047.09403643
  PAW double counting   =     34864.66353179   -34806.45349700
  entropy T*S    EENTRO =         0.00000000
  eigenvalues    EBANDS =      -411.85939867
  atomic energy  EATOM  =     10363.97701633
  Solvation  Ediel_sol  =         0.00000000
  ---------------------------------------------------
  free energy    TOTEN  =      -877.58879099 eV

  energy without entropy =     -877.58879099  energy(sigma->0) =     -877.58879099


--------------------------------------------------------------------------------------------------------




--------------------------------------- Iteration      1(   9)  ---------------------------------------


    POTLOK:  cpu time    0.1245: real time    0.1245
    SETDIJ:  cpu time    0.1189: real time    0.1189
    EDDIAG:  cpu time    1.0654: real time    1.0652
  RMM-DIIS:  cpu time    4.5103: real time    4.4659
    ORTHCH:  cpu time    0.0301: real time    0.0300
 BZINTS: Fermi energy:    5.130016;  384.000000 electrons
         Band energy:-0.375041E+03;  BLOECHL correction:    0.000000
       DOS:  cpu time    0.0123: real time    0.0123
    CHARGE:  cpu time    1.5864: real time    1.5862
    MIXING:  cpu time    0.0587: real time    0.0586
    --------------------------------------------
      LOOP:  cpu time    7.5065: real time    7.4617

 eigenvalue-minimisations  :  3036
 total energy-change (2. order) : 0.2922882E+00  (-0.2017867E+00)
 number of electron     384.0000004 magnetization 
 augmentation part        1.2843154 magnetization 

 Broyden mixing:
  rms(total) = 0.92597E-01    rms(broyden)= 0.92595E-01
  rms(prec ) = 0.13024E+00
  weight for this iteration     100.00

 eigenvalues of (default mixing * dielectric matrix)
  average eigenvalue GAMMA=   1.6589
  2.4655  0.9475  1.6114  1.6114

 Free energy of the ion-electron system (eV)
  ---------------------------------------------------
  alpha Z        PSCENC =      1184.40993130
  Ewald energy   TEWEN  =    -11622.19771033
  -Hartree energ DENC   =     -1535.83077876
  -exchange      EXHF   =         0.00000000
  -V(xc)+E(xc)   XCENC  =      1049.81843913
  PAW double counting   =     35995.25170362   -35937.68391725
  entropy T*S    EENTRO =         0.00000000
  eigenvalues    EBANDS =      -375.04118678
  atomic energy  EATOM  =     10363.97701633
  Solvation  Ediel_sol  =         0.00000000
  ---------------------------------------------------
  free energy    TOTEN  =      -877.29650275 eV

  energy without entropy =     -877.29650275  energy(sigma->0) =     -877.29650275


--------------------------------------------------------------------------------------------------------




--------------------------------------- Iteration      1(  10)  ---------------------------------------


    POTLOK:  cpu time    0.1283: real time    0.1283
    SETDIJ:  cpu time    0.1181: real time    0.1181
    EDDIAG:  cpu time    1.0631: real time    1.0629
  RMM-DIIS:  cpu time    4.6009: real time    4.5492
    ORTHCH:  cpu time    0.0301: real time    0.0301
 BZINTS: Fermi energy:    5.115336;  384.000000 electrons
         Band energy:-0.379922E+03;  BLOECHL correction:   -0.000000
       DOS:  cpu time    0.0124: real time    0.0124
    CHARGE:  cpu time    1.5812: real time    1.5806
    MIXING:  cpu time    0.0604: real time    0.0604
    --------------------------------------------
      LOOP:  cpu time    7.5945: real time    7.5420

 eigenvalue-minimisations  :  3089
 total energy-change (2. order) :-0.7892034E-03  (-0.2690685E-01)
 number of electron     384.0000004 magnetization 
 augmentation part        1.2671815 magnetization 

 Broyden mixing:
  rms(total) = 0.66111E-01    rms(broyden)= 0.66110E-01
  rms(prec ) = 0.90418E-01
  weight for this iteration     100.00

 eigenvalues of (default mixing * dielectric matrix)
  average eigenvalue GAMMA=   1.6706
  2.4823  2.4823  1.2155  1.0865  1.0865

 Free energy of the ion-electron system (eV)
  ---------------------------------------------------
  alpha Z        PSCENC =      1184.40993130
  Ewald energy   TEWEN  =    -11622.19771033
  -Hartree energ DENC   =     -1530.83357725
  -exchange      EXHF   =         0.00000000
  -V(xc)+E(xc)   XCENC  =      1049.50694006
  PAW double counting   =     35867.66374368   -35809.90206724
  entropy T*S    EENTRO =         0.00000000
  eigenvalues    EBANDS =      -379.92156851
  atomic energy  EATOM  =     10363.97701633
  Solvation  Ediel_sol  =         0.00000000
  ---------------------------------------------------
  free energy    TOTEN  =      -877.29729196 eV

  energy without entropy =     -877.29729196  energy(sigma->0) =     -877.29729196


--------------------------------------------------------------------------------------------------------




--------------------------------------- Iteration      1(  11)  ---------------------------------------


    POTLOK:  cpu time    0.1227: real time    0.1229
    SETDIJ:  cpu time    0.1182: real time    0.1182
    EDDIAG:  cpu time    1.0631: real time    1.0629
  RMM-DIIS:  cpu time    4.5181: real time    4.4657
    ORTHCH:  cpu time    0.0301: real time    0.0300
 BZINTS: Fermi energy:    5.103259;  384.000000 electrons
         Band energy:-0.384110E+03;  BLOECHL correction:   -0.000000
       DOS:  cpu time    0.0124: real time    0.0124
    CHARGE:  cpu time    1.5702: real time    1.5694
    MIXING:  cpu time    0.0612: real time    0.0612
    --------------------------------------------
      LOOP:  cpu time    7.4960: real time    7.4426

 eigenvalue-minimisations  :  3036
 total energy-change (2. order) : 0.9836882E-02  (-0.6558372E-02)
 number of electron     384.0000004 magnetization 
 augmentation part        1.2662523 magnetization 

 Broyden mixing:
  rms(total) = 0.13037E-01    rms(broyden)= 0.13036E-01
  rms(prec ) = 0.15527E-01
  weight for this iteration     100.00

 eigenvalues of (default mixing * dielectric matrix)
  average eigenvalue GAMMA=   1.6810
  2.7789  2.7789  1.3879  1.3879  0.8762  0.8762

 Free energy of the ion-electron system (eV)
  ---------------------------------------------------
  alpha Z        PSCENC =      1184.40993130
  Ewald energy   TEWEN  =    -11622.19771033
  -Hartree energ DENC   =     -1526.60864679
  -exchange      EXHF   =         0.00000000
  -V(xc)+E(xc)   XCENC  =      1049.28146827
  PAW double counting   =     35958.18017013   -35900.21919622
  entropy T*S    EENTRO =         0.00000000
  eigenvalues    EBANDS =      -384.11048776
  atomic energy  EATOM  =     10363.97701633
  Solvation  Ediel_sol  =         0.00000000
  ---------------------------------------------------
  free energy    TOTEN  =      -877.28745508 eV

  energy without entropy =     -877.28745508  energy(sigma->0) =     -877.28745508


--------------------------------------------------------------------------------------------------------




--------------------------------------- Iteration      1(  12)  ---------------------------------------


    POTLOK:  cpu time    0.1263: real time    0.1271
    SETDIJ:  cpu time    0.1205: real time    0.1204
    EDDIAG:  cpu time    1.0635: real time    1.0634
  RMM-DIIS:  cpu time    4.5745: real time    4.5294
    ORTHCH:  cpu time    0.0304: real time    0.0304
 BZINTS: Fermi energy:    5.100253;  384.000000 electrons
         Band energy:-0.385081E+03;  BLOECHL correction:   -0.000000
       DOS:  cpu time    0.0126: real time    0.0126
    CHARGE:  cpu time    1.5949: real time    1.5942
    MIXING:  cpu time    0.0664: real time    0.0664
    --------------------------------------------
      LOOP:  cpu time    7.5892: real time    7.5438

 eigenvalue-minimisations  :  3072
 total energy-change (2. order) :-0.1589887E-02  (-0.1003351E-02)
 number of electron     384.0000004 magnetization 
 augmentation part        1.2666329 magnetization 

 Broyden mixing:
  rms(total) = 0.15459E-01    rms(broyden)= 0.15459E-01
  rms(prec ) = 0.21130E-01
  weight for this iteration     100.00

 eigenvalues of (default mixing * dielectric matrix)
  average eigenvalue GAMMA=   1.6112
  2.7937  2.7937  1.4956  1.4956  0.9349  0.9349  0.8302

 Free energy of the ion-electron system (eV)
  ---------------------------------------------------
  alpha Z        PSCENC =      1184.40993130
  Ewald energy   TEWEN  =    -11622.19771033
  -Hartree energ DENC   =     -1525.62762364
  -exchange      EXHF   =         0.00000000
  -V(xc)+E(xc)   XCENC  =      1049.21947060
  PAW double counting   =     35886.44586704   -35828.43469344
  entropy T*S    EENTRO =         0.00000000
  eigenvalues    EBANDS =      -385.08130281
  atomic energy  EATOM  =     10363.97701633
  Solvation  Ediel_sol  =         0.00000000
  ---------------------------------------------------
  free energy    TOTEN  =      -877.28904496 eV

  energy without entropy =     -877.28904496  energy(sigma->0) =     -877.28904496


--------------------------------------------------------------------------------------------------------




--------------------------------------- Iteration      1(  13)  ---------------------------------------


    POTLOK:  cpu time    0.1248: real time    0.1248
    SETDIJ:  cpu time    0.1187: real time    0.1187
    EDDIAG:  cpu time    1.0659: real time    1.0657
  RMM-DIIS:  cpu time    4.6520: real time    4.6079
    ORTHCH:  cpu time    0.0299: real time    0.0299
 BZINTS: Fermi energy:    5.102253;  384.000000 electrons
         Band energy:-0.384371E+03;  BLOECHL correction:   -0.000000
       DOS:  cpu time    0.0123: real time    0.0123
    CHARGE:  cpu time    1.5884: real time    1.5875
    MIXING:  cpu time    0.0772: real time    0.0771
    --------------------------------------------
      LOOP:  cpu time    7.6692: real time    7.6238

 eigenvalue-minimisations  :  3131
 total energy-change (2. order) : 0.5902542E-03  (-0.2529117E-03)
 number of electron     384.0000004 magnetization 
 augmentation part        1.2652533 magnetization 

 Broyden mixing:
  rms(total) = 0.66090E-02    rms(broyden)= 0.66090E-02
  rms(prec ) = 0.87505E-02
  weight for this iteration     100.00

 eigenvalues of (default mixing * dielectric matrix)
  average eigenvalue GAMMA=   1.6787
  2.8060  2.8060  2.1994  1.4762  1.0534  1.0534  1.0732  0.9618

 Free energy of the ion-electron system (eV)
  ---------------------------------------------------
  alpha Z        PSCENC =      1184.40993130
  Ewald energy   TEWEN  =    -11622.19771033
  -Hartree energ DENC   =     -1526.36995837
  -exchange      EXHF   =         0.00000000
  -V(xc)+E(xc)   XCENC  =      1049.27044819
  PAW double counting   =     35889.97118301   -35831.97843301
  entropy T*S    EENTRO =         0.00000000
  eigenvalues    EBANDS =      -384.37093184
  atomic energy  EATOM  =     10363.97701633
  Solvation  Ediel_sol  =         0.00000000
  ---------------------------------------------------
  free energy    TOTEN  =      -877.28845471 eV

  energy without entropy =     -877.28845471  energy(sigma->0) =     -877.28845471


--------------------------------------------------------------------------------------------------------




--------------------------------------- Iteration      1(  14)  ---------------------------------------


    POTLOK:  cpu time    0.1284: real time    0.1284
    SETDIJ:  cpu time    0.1188: real time    0.1188
    EDDIAG:  cpu time    1.0648: real time    1.0728
  RMM-DIIS:  cpu time    4.4985: real time    4.4517
    ORTHCH:  cpu time    0.0299: real time    0.0299
 BZINTS: Fermi energy:    5.103691;  384.000000 electrons
         Band energy:-0.383897E+03;  BLOECHL correction:   -0.000000
       DOS:  cpu time    0.0123: real time    0.0123
    CHARGE:  cpu time    1.5753: real time    1.5748
    MIXING:  cpu time    0.0708: real time    0.0708
    --------------------------------------------
      LOOP:  cpu time    7.4988: real time    7.4595

 eigenvalue-minimisations  :  3039
 total energy-change (2. order) :-0.1347108E-04  (-0.2004218E-03)
 number of electron     384.0000004 magnetization 
 augmentation part        1.2635049 magnetization 

 Broyden mixing:
  rms(total) = 0.31959E-02    rms(broyden)= 0.31958E-02
  rms(prec ) = 0.44645E-02
  weight for this iteration     100.00

 eigenvalues of (default mixing * dielectric matrix)
  average eigenvalue GAMMA=   1.5981
  2.6158  2.6158  2.3755  1.5063  1.4534  1.0158  1.0158  0.9811  0.8032

 Free energy of the ion-electron system (eV)
  ---------------------------------------------------
  alpha Z        PSCENC =      1184.40993130
  Ewald energy   TEWEN  =    -11622.19771033
  -Hartree energ DENC   =     -1526.85976503
  -exchange      EXHF   =         0.00000000
  -V(xc)+E(xc)   XCENC  =      1049.30332473
  PAW double counting   =     35894.80205930   -35836.82642782
  entropy T*S    EENTRO =         0.00000000
  eigenvalues    EBANDS =      -383.89689665
  atomic energy  EATOM  =     10363.97701633
  Solvation  Ediel_sol  =         0.00000000
  ---------------------------------------------------
  free energy    TOTEN  =      -877.28846818 eV

  energy without entropy =     -877.28846818  energy(sigma->0) =     -877.28846818


--------------------------------------------------------------------------------------------------------




--------------------------------------- Iteration      1(  15)  ---------------------------------------


    POTLOK:  cpu time    0.1237: real time    0.1252
    SETDIJ:  cpu time    0.1186: real time    0.1186
    EDDIAG:  cpu time    1.0625: real time    1.0624
  RMM-DIIS:  cpu time    4.5599: real time    4.5183
    ORTHCH:  cpu time    0.0299: real time    0.0299
 BZINTS: Fermi energy:    5.103497;  384.000000 electrons
         Band energy:-0.383980E+03;  BLOECHL correction:   -0.000000
       DOS:  cpu time    0.0125: real time    0.0125
    CHARGE:  cpu time    1.5800: real time    1.5798
    MIXING:  cpu time    0.0757: real time    0.0757
    --------------------------------------------
      LOOP:  cpu time    7.5629: real time    7.5223

 eigenvalue-minimisations  :  3066
 total energy-change (2. order) : 0.2339374E-04  (-0.1718822E-04)
 number of electron     384.0000004 magnetization 
 augmentation part        1.2632968 magnetization 

 Broyden mixing:
  rms(total) = 0.18767E-02    rms(broyden)= 0.18767E-02
  rms(prec ) = 0.25849E-02
  weight for this iteration     100.00

 eigenvalues of (default mixing * dielectric matrix)
  average eigenvalue GAMMA=   1.5969
  2.7533  2.7533  2.3956  1.5732  1.5732  1.1199  1.1199  0.9301  0.8751  0.8751

 Free energy of the ion-electron system (eV)
  ---------------------------------------------------
  alpha Z        PSCENC =      1184.40993130
  Ewald energy   TEWEN  =    -11622.19771033
  -Hartree energ DENC   =     -1526.77028859
  -exchange      EXHF   =         0.00000000
  -V(xc)+E(xc)   XCENC  =      1049.29677404
  PAW double counting   =     35898.80329417   -35840.82762214
  entropy T*S    EENTRO =         0.00000000
  eigenvalues    EBANDS =      -383.97983956
  atomic energy  EATOM  =     10363.97701633
  Solvation  Ediel_sol  =         0.00000000
  ---------------------------------------------------
  free energy    TOTEN  =      -877.28844479 eV

  energy without entropy =     -877.28844479  energy(sigma->0) =     -877.28844479


--------------------------------------------------------------------------------------------------------




--------------------------------------- Iteration      1(  16)  ---------------------------------------


    POTLOK:  cpu time    0.1230: real time    0.1230
    SETDIJ:  cpu time    0.1186: real time    0.1185
    EDDIAG:  cpu time    1.0647: real time    1.0645
  RMM-DIIS:  cpu time    4.5012: real time    4.4562
    ORTHCH:  cpu time    0.0299: real time    0.0299
 BZINTS: Fermi energy:    5.103409;  384.000000 electrons
         Band energy:-0.384035E+03;  BLOECHL correction:   -0.000000
       DOS:  cpu time    0.0124: real time    0.0124
    CHARGE:  cpu time    1.5763: real time    1.5759
    MIXING:  cpu time    0.0731: real time    0.0731
    --------------------------------------------
      LOOP:  cpu time    7.4993: real time    7.4536

 eigenvalue-minimisations  :  3026
 total energy-change (2. order) : 0.3488789E-05  (-0.5536657E-05)
 number of electron     384.0000004 magnetization 
 augmentation part        1.2633167 magnetization 

 Broyden mixing:
  rms(total) = 0.69206E-03    rms(broyden)= 0.69206E-03
  rms(prec ) = 0.92121E-03
  weight for this iteration     100.00

 eigenvalues of (default mixing * dielectric matrix)
  average eigenvalue GAMMA=   1.5626
  2.9523  2.5307  2.1364  1.6168  1.6168  1.2538  1.2538  1.0528  1.0528  0.9077
  0.8152

 Free energy of the ion-electron system (eV)
  ---------------------------------------------------
  alpha Z        PSCENC =      1184.40993130
  Ewald energy   TEWEN  =    -11622.19771033
  -Hartree energ DENC   =     -1526.71401412
  -exchange      EXHF   =         0.00000000
  -V(xc)+E(xc)   XCENC  =      1049.29317292
  PAW double counting   =     35899.06091311   -35841.08321625
  entropy T*S    EENTRO =         0.00000000
  eigenvalues    EBANDS =      -384.03453426
  atomic energy  EATOM  =     10363.97701633
  Solvation  Ediel_sol  =         0.00000000
  ---------------------------------------------------
  free energy    TOTEN  =      -877.28844130 eV

  energy without entropy =     -877.28844130  energy(sigma->0) =     -877.28844130


--------------------------------------------------------------------------------------------------------




--------------------------------------- Iteration      1(  17)  ---------------------------------------


    POTLOK:  cpu time    0.1257: real time    0.1260
    SETDIJ:  cpu time    0.1191: real time    0.1191
    EDDIAG:  cpu time    1.0692: real time    1.0615
  RMM-DIIS:  cpu time    4.3564: real time    4.3265
    ORTHCH:  cpu time    0.0299: real time    0.0299
 BZINTS: Fermi energy:    5.103439;  384.000000 electrons
         Band energy:-0.384037E+03;  BLOECHL correction:   -0.000000
       DOS:  cpu time    0.0122: real time    0.0122
    CHARGE:  cpu time    1.5923: real time    1.5920
    MIXING:  cpu time    0.0697: real time    0.0697
    --------------------------------------------
      LOOP:  cpu time    7.3746: real time    7.3369

 eigenvalue-minimisations  :  2933
 total energy-change (2. order) :-0.1285140E-05  (-0.1040728E-05)
 number of electron     384.0000004 magnetization 
 augmentation part        1.2633340 magnetization 

 Broyden mixing:
  rms(total) = 0.34803E-03    rms(broyden)= 0.34803E-03
[...]
   -.215E+02 -.567E+01 -.179E+02   0.228E+02 0.568E+01 0.185E+02   -.127E+01 -.117E-01 -.583E+00   0.812E-04 -.152E-04 0.137E-04
   -.215E+02 -.567E+01 -.179E+02   0.228E+02 0.568E+01 0.185E+02   -.127E+01 -.117E-01 -.583E+00   0.812E-04 -.152E-04 0.137E-04
   -.215E+02 -.567E+01 -.179E+02   0.228E+02 0.568E+01 0.185E+02   -.127E+01 -.117E-01 -.583E+00   0.812E-04 -.152E-04 0.137E-04
   -.215E+02 -.567E+01 -.179E+02   0.228E+02 0.568E+01 0.185E+02   -.127E+01 -.117E-01 -.583E+00   0.812E-04 -.152E-04 0.137E-04
   -.215E+02 -.567E+01 -.179E+02   0.228E+02 0.568E+01 0.185E+02   -.127E+01 -.117E-01 -.583E+00   0.812E-04 -.152E-04 0.137E-04
   -.215E+02 -.567E+01 -.179E+02   0.228E+02 0.568E+01 0.185E+02   -.127E+01 -.117E-01 -.583E+00   0.812E-04 -.152E-04 0.137E-04
   -.846E+01 -.452E+01 -.465E+02   0.835E+01 0.474E+01 0.509E+02   0.110E+00 -.216E+00 -.441E+01   0.133E-06 0.665E-04 0.337E-04
   -.846E+01 -.452E+01 -.465E+02   0.835E+01 0.474E+01 0.509E+02   0.110E+00 -.216E+00 -.441E+01   0.133E-06 0.665E-04 0.337E-04
   -.846E+01 -.452E+01 -.465E+02   0.835E+01 0.474E+01 0.509E+02   0.110E+00 -.216E+00 -.441E+01   0.133E-06 0.665E-04 0.337E-04
   -.846E+01 -.452E+01 -.465E+02   0.835E+01 0.474E+01 0.509E+02   0.110E+00 -.216E+00 -.441E+01   0.133E-06 0.665E-04 0.337E-04
   -.846E+01 -.452E+01 -.465E+02   0.835E+01 0.474E+01 0.509E+02   0.110E+00 -.216E+00 -.441E+01   0.133E-06 0.665E-04 0.337E-04
   -.846E+01 -.452E+01 -.465E+02   0.835E+01 0.474E+01 0.509E+02   0.110E+00 -.216E+00 -.441E+01   0.133E-06 0.665E-04 0.337E-04
   -.846E+01 -.452E+01 -.465E+02   0.835E+01 0.474E+01 0.509E+02   0.110E+00 -.216E+00 -.441E+01   0.133E-06 0.665E-04 0.337E-04
   -.846E+01 -.452E+01 -.465E+02   0.835E+01 0.474E+01 0.509E+02   0.110E+00 -.216E+00 -.441E+01   0.133E-06 0.665E-04 0.337E-04
   -.180E+02 -.360E+02 -.251E+02   0.190E+02 0.399E+02 0.271E+02   -.984E+00 -.384E+01 -.195E+01   -.169E-04 0.102E-04 0.719E-04
   -.180E+02 -.360E+02 -.251E+02   0.190E+02 0.399E+02 0.271E+02   -.984E+00 -.384E+01 -.195E+01   -.169E-04 0.102E-04 0.719E-04
   -.180E+02 -.360E+02 -.251E+02   0.190E+02 0.399E+02 0.271E+02   -.984E+00 -.384E+01 -.195E+01   -.169E-04 0.102E-04 0.719E-04
   -.180E+02 -.360E+02 -.251E+02   0.190E+02 0.399E+02 0.271E+02   -.984E+00 -.384E+01 -.195E+01   -.169E-04 0.102E-04 0.719E-04
   -.180E+02 -.360E+02 -.251E+02   0.190E+02 0.399E+02 0.271E+02   -.984E+00 -.384E+01 -.195E+01   -.169E-04 0.102E-04 0.719E-04
   -.180E+02 -.360E+02 -.251E+02   0.190E+02 0.399E+02 0.271E+02   -.984E+00 -.384E+01 -.195E+01   -.169E-04 0.102E-04 0.719E-04
   -.180E+02 -.360E+02 -.251E+02   0.190E+02 0.399E+02 0.271E+02   -.984E+00 -.384E+01 -.195E+01   -.169E-04 0.102E-04 0.719E-04
   -.180E+02 -.360E+02 -.251E+02   0.190E+02 0.399E+02 0.271E+02   -.984E+00 -.384E+01 -.195E+01   -.169E-04 0.102E-04 0.719E-04
   0.121E+01 -.205E+01 -.248E+01   -.595E+00 0.180E+01 0.239E+01   -.620E+00 0.253E+00 0.965E-01   -.585E-03 -.357E-03 -.788E-03
   0.121E+01 -.205E+01 -.248E+01   -.595E+00 0.180E+01 0.239E+01   -.620E+00 0.253E+00 0.965E-01   -.585E-03 -.357E-03 -.788E-03
   0.121E+01 -.205E+01 -.248E+01   -.595E+00 0.180E+01 0.239E+01   -.620E+00 0.253E+00 0.965E-01   -.585E-03 -.357E-03 -.788E-03
   0.121E+01 -.205E+01 -.248E+01   -.595E+00 0.180E+01 0.239E+01   -.620E+00 0.253E+00 0.965E-01   -.585E-03 -.357E-03 -.788E-03
   0.121E+01 -.205E+01 -.248E+01   -.595E+00 0.180E+01 0.239E+01   -.620E+00 0.253E+00 0.965E-01   -.585E-03 -.357E-03 -.788E-03
   0.121E+01 -.205E+01 -.248E+01   -.595E+00 0.180E+01 0.239E+01   -.620E+00 0.253E+00 0.965E-01   -.585E-03 -.357E-03 -.788E-03
   0.121E+01 -.205E+01 -.248E+01   -.595E+00 0.180E+01 0.239E+01   -.620E+00 0.253E+00 0.965E-01   -.585E-03 -.357E-03 -.788E-03
   0.121E+01 -.205E+01 -.248E+01   -.595E+00 0.180E+01 0.239E+01   -.620E+00 0.253E+00 0.965E-01   -.585E-03 -.357E-03 -.788E-03
   0.470E+02 0.744E+01 0.319E+02   -.538E+02 -.765E+01 -.353E+02   0.683E+01 0.216E+00 0.336E+01   -.548E-04 -.147E-03 -.241E-03
   0.470E+02 0.744E+01 0.319E+02   -.538E+02 -.765E+01 -.353E+02   0.683E+01 0.216E+00 0.336E+01   -.548E-04 -.147E-03 -.241E-03
   0.470E+02 0.744E+01 0.319E+02   -.538E+02 -.765E+01 -.353E+02   0.683E+01 0.216E+00 0.336E+01   -.548E-04 -.147E-03 -.241E-03
   0.470E+02 0.744E+01 0.319E+02   -.538E+02 -.765E+01 -.353E+02   0.683E+01 0.216E+00 0.336E+01   -.548E-04 -.147E-03 -.241E-03
   0.470E+02 0.744E+01 0.319E+02   -.538E+02 -.765E+01 -.353E+02   0.683E+01 0.216E+00 0.336E+01   -.548E-04 -.147E-03 -.241E-03
   0.470E+02 0.744E+01 0.319E+02   -.538E+02 -.765E+01 -.353E+02   0.683E+01 0.216E+00 0.336E+01   -.548E-04 -.147E-03 -.241E-03
   0.470E+02 0.744E+01 0.319E+02   -.538E+02 -.765E+01 -.353E+02   0.683E+01 0.216E+00 0.336E+01   -.548E-04 -.147E-03 -.241E-03
   0.470E+02 0.744E+01 0.319E+02   -.538E+02 -.765E+01 -.353E+02   0.683E+01 0.216E+00 0.336E+01   -.548E-04 -.147E-03 -.241E-03
   -.142E+02 -.121E+02 -.242E+02   0.160E+02 0.145E+02 0.285E+02   -.176E+01 -.241E+01 -.434E+01   0.590E-03 0.732E-03 0.134E-02
   -.142E+02 -.121E+02 -.242E+02   0.160E+02 0.145E+02 0.285E+02   -.176E+01 -.241E+01 -.434E+01   0.590E-03 0.732E-03 0.134E-02
   -.142E+02 -.121E+02 -.242E+02   0.160E+02 0.145E+02 0.285E+02   -.176E+01 -.241E+01 -.434E+01   0.590E-03 0.732E-03 0.134E-02
   -.142E+02 -.121E+02 -.242E+02   0.160E+02 0.145E+02 0.285E+02   -.176E+01 -.241E+01 -.434E+01   0.590E-03 0.732E-03 0.134E-02
   -.142E+02 -.121E+02 -.242E+02   0.160E+02 0.145E+02 0.285E+02   -.176E+01 -.241E+01 -.434E+01   0.590E-03 0.732E-03 0.134E-02
   -.142E+02 -.121E+02 -.242E+02   0.160E+02 0.145E+02 0.285E+02   -.176E+01 -.241E+01 -.434E+01   0.590E-03 0.732E-03 0.134E-02
   -.142E+02 -.121E+02 -.242E+02   0.160E+02 0.145E+02 0.285E+02   -.176E+01 -.241E+01 -.434E+01   0.590E-03 0.732E-03 0.134E-02
   -.142E+02 -.121E+02 -.242E+02   0.160E+02 0.145E+02 0.285E+02   -.176E+01 -.241E+01 -.434E+01   0.590E-03 0.732E-03 0.134E-02
   0.195E+02 0.118E+02 0.260E+02   -.218E+02 -.144E+02 -.310E+02   0.230E+01 0.267E+01 0.497E+01   0.312E-03 0.691E-03 0.116E-02
   0.195E+02 0.118E+02 0.260E+02   -.218E+02 -.144E+02 -.310E+02   0.230E+01 0.267E+01 0.497E+01   0.312E-03 0.691E-03 0.116E-02
   0.195E+02 0.118E+02 0.260E+02   -.218E+02 -.144E+02 -.310E+02   0.230E+01 0.267E+01 0.497E+01   0.312E-03 0.691E-03 0.116E-02
   0.195E+02 0.118E+02 0.260E+02   -.218E+02 -.144E+02 -.310E+02   0.230E+01 0.267E+01 0.497E+01   0.312E-03 0.691E-03 0.116E-02
   0.195E+02 0.118E+02 0.260E+02   -.218E+02 -.144E+02 -.310E+02   0.230E+01 0.267E+01 0.497E+01   0.312E-03 0.691E-03 0.116E-02
   0.195E+02 0.118E+02 0.260E+02   -.218E+02 -.144E+02 -.310E+02   0.230E+01 0.267E+01 0.497E+01   0.312E-03 0.691E-03 0.116E-02
   0.195E+02 0.118E+02 0.260E+02   -.218E+02 -.144E+02 -.310E+02   0.230E+01 0.267E+01 0.497E+01   0.312E-03 0.691E-03 0.116E-02
   0.195E+02 0.118E+02 0.260E+02   -.218E+02 -.144E+02 -.310E+02   0.230E+01 0.267E+01 0.497E+01   0.312E-03 0.691E-03 0.116E-02
 -----------------------------------------------------------------------------------------------
   -.611E+01 -.807E+01 -.146E+02   -.121E-12 0.746E-13 0.504E-12   0.607E+01 0.807E+01 0.146E+02   0.683E-02 0.906E-02 0.164E-01
 
 
 POSITION                                       TOTAL-FORCE (eV/Angst)
 -----------------------------------------------------------------------------------
      2.49502      3.73294      6.61625        -0.000111      0.000702      0.000985
      2.45865      3.78449     11.82679        -0.000111      0.000702      0.000985
      3.81967      8.28807      8.77259        -0.000111      0.000702      0.000985
      3.78330      8.33962     13.98313        -0.000111      0.000702      0.000985
      7.10352      3.75676      8.70503        -0.000111      0.000702      0.000985
      7.06715      3.80831     13.91557        -0.000111      0.000702      0.000985
      8.42817      8.31190     10.86137        -0.000111      0.000702      0.000985
      8.39180      8.36344     16.07191        -0.000111      0.000702      0.000985
      4.75118      3.69172      5.05349        -0.000012     -0.000400     -0.000141
      4.71482      3.74327     10.26404        -0.000012     -0.000400     -0.000141
      6.07584      8.24686      7.20983        -0.000012     -0.000400     -0.000141
      6.03947      8.29840     12.42037        -0.000012     -0.000400     -0.000141
      9.35969      3.71555      7.14227        -0.000012     -0.000400     -0.000141
      9.32332      3.76710     12.35281        -0.000012     -0.000400     -0.000141
     10.68434      8.27068      9.29861        -0.000012     -0.000400     -0.000141
     10.64797      8.32223     14.50915        -0.000012     -0.000400     -0.000141
      4.08864      1.49938      6.54028         0.000109     -0.000003     -0.000411
      4.05227      1.55092     11.75082         0.000109     -0.000003     -0.000411
      5.41329      6.05451      8.69662         0.000109     -0.000003     -0.000411
      5.37693      6.10606     13.90716         0.000109     -0.000003     -0.000411
      8.69714      1.52320      8.62906         0.000109     -0.000003     -0.000411
      8.66078      1.57475     13.83960         0.000109     -0.000003     -0.000411
     10.02179      6.07833     10.78540         0.000109     -0.000003     -0.000411
      9.98543      6.12988     15.99594         0.000109     -0.000003     -0.000411
      3.40089      0.90006      2.84269         0.000047     -0.000007      0.000010
      3.36453      0.95160      8.05324         0.000047     -0.000007      0.000010
      4.72555      5.45519      4.99903         0.000047     -0.000007      0.000010
      4.68918      5.50674     10.20958         0.000047     -0.000007      0.000010
      8.00940      0.92388      4.93147         0.000047     -0.000007      0.000010
      7.97303      0.97543     10.14201         0.000047     -0.000007      0.000010
      9.33405      5.47901      7.08781         0.000047     -0.000007      0.000010
      9.29768      5.53056     12.29835         0.000047     -0.000007      0.000010
      1.14780      0.93006      4.41449        -0.000059      0.000292     -0.000130
      1.11144      0.98161      9.62503        -0.000059      0.000292     -0.000130
      2.47246      5.48520      6.57083        -0.000059      0.000292     -0.000130
      2.43609      5.53674     11.78137        -0.000059      0.000292     -0.000130
      5.75631      0.95389      6.50326        -0.000059      0.000292     -0.000130
      5.71994      1.00543     11.71381        -0.000059      0.000292     -0.000130
      7.08096      5.50902      8.65960        -0.000059      0.000292     -0.000130
      7.04459      5.56057     13.87015        -0.000059      0.000292     -0.000130
      1.81674      3.14356      2.91336        -0.000200     -0.000175      0.000187
      1.78037      3.19511      8.12390        -0.000200     -0.000175      0.000187
      3.14139      7.69869      5.06970        -0.000200     -0.000175      0.000187
      3.10503      7.75024     10.28024        -0.000200     -0.000175      0.000187
      6.42524      3.16739      5.00213        -0.000200     -0.000175      0.000187
      6.38888      3.21893     10.21268        -0.000200     -0.000175      0.000187
      7.74989      7.72252      7.15847        -0.000200     -0.000175      0.000187
      7.71353      7.77406     12.36901        -0.000200     -0.000175      0.000187
      5.84949      4.59692      7.72716         0.000237     -0.000570     -0.000380
      5.81312      4.64846     12.93770         0.000237     -0.000570     -0.000380
      7.17414      9.15205      9.88350         0.000237     -0.000570     -0.000380
      7.13778      9.20359     15.09404         0.000237     -0.000570     -0.000380
     10.45799      4.62074      9.81593         0.000237     -0.000570     -0.000380
     10.42163      4.67229     15.02648         0.000237     -0.000570     -0.000380
     11.78264      9.17587     11.97227         0.000237     -0.000570     -0.000380
     11.74628      9.22742     17.18282         0.000237     -0.000570     -0.000380
      5.41141      3.14732      8.71023         0.000330     -0.000260     -0.000590
      5.37505      3.19887     13.92077         0.000330     -0.000260     -0.000590
      6.73606      7.70245     10.86657         0.000330     -0.000260     -0.000590
      6.69970      7.75400     16.07711         0.000330     -0.000260     -0.000590
     10.01991      3.17114     10.79901         0.000330     -0.000260     -0.000590
      9.98355      3.22269     16.00955         0.000330     -0.000260     -0.000590
     11.34457      7.72628     12.95535         0.000330     -0.000260     -0.000590
     11.30820      7.77782     18.16589         0.000330     -0.000260     -0.000590
      1.58074      0.03884      0.76169         0.000759      0.000359      0.000868
      1.54438      0.09039      5.97223         0.000759      0.000359      0.000868
      2.90539      4.59397      2.91803         0.000759      0.000359      0.000868
      2.86903      4.64552      8.12857         0.000759      0.000359      0.000868
      6.18924      0.06267      2.85047         0.000759      0.000359      0.000868
      6.15288      0.11421      8.06101         0.000759      0.000359      0.000868
      7.51390      4.61780      5.00680         0.000759      0.000359      0.000868
      7.47753      4.66934     10.21735         0.000759      0.000359      0.000868
      0.03286      0.03826      1.74406        -0.000099      0.000177     -0.000066
     -0.00351      0.08981      6.95460        -0.000099      0.000177     -0.000066
      1.35751      4.59339      3.90040        -0.000099      0.000177     -0.000066
      1.32114      4.64494      9.11094        -0.000099      0.000177     -0.000066
      4.64136      0.06209      3.83284        -0.000099      0.000177     -0.000066
      4.60499      0.11363      9.04338        -0.000099      0.000177     -0.000066
      5.96601      4.61722      5.98918        -0.000099      0.000177     -0.000066
      5.92964      4.66876     11.19972        -0.000099      0.000177     -0.000066
      0.47493      1.50106      0.75203        -0.000174     -0.000070      0.000102
      0.43856      1.55261      5.96257        -0.000174     -0.000070      0.000102
      1.79958      6.05620      2.90837        -0.000174     -0.000070      0.000102
      1.76321      6.10774      8.11891        -0.000174     -0.000070      0.000102
      5.08343      1.52489      2.84081        -0.000174     -0.000070      0.000102
      5.04706      1.57643      8.05135        -0.000174     -0.000070      0.000102
      6.40808      6.08002      4.99715        -0.000174     -0.000070      0.000102
      6.37171      6.13157     10.20769        -0.000174     -0.000070      0.000102
      2.91174      2.30628      4.69827         0.000264      0.001374      0.002144
      2.87538      2.35783      9.90881         0.000264      0.001374      0.002144
      4.23639      6.86142      6.85461         0.000264      0.001374      0.002144
      4.20003      6.91296     12.06515         0.000264      0.001374      0.002144
      7.52024      2.33011      6.78705         0.000264      0.001374      0.002144
      7.48388      2.38165     11.99759         0.000264      0.001374      0.002144
      8.84490      6.88524      8.94339         0.000264      0.001374      0.002144
      8.80853      6.93679     14.15393         0.000264      0.001374      0.002144
      4.41010      4.60188      8.75096         0.000226     -0.000222     -0.000227
      4.37374      4.65343     13.96150         0.000226     -0.000222     -0.000227
      5.73476      9.15701     10.90730         0.000226     -0.000222     -0.000227
      5.69839      9.20856     16.11784         0.000226     -0.000222     -0.000227
      9.01861      4.62570     10.83973         0.000226     -0.000222     -0.000227
      8.98224      4.67725     16.05028         0.000226     -0.000222     -0.000227
     10.34326      9.18084     12.99607         0.000226     -0.000222     -0.000227
     10.30689      9.23238     18.20662         0.000226     -0.000222     -0.000227
      3.59837      2.86804      5.83259         0.000161     -0.000622     -0.000845
      3.56200      2.91959     11.04314         0.000161     -0.000622     -0.000845
      4.92302      7.42317      7.98893         0.000161     -0.000622     -0.000845
      4.88666      7.47472     13.19947         0.000161     -0.000622     -0.000845
      8.20687      2.89187      7.92137         0.000161     -0.000622     -0.000845
      8.17051      2.94341     13.13191         0.000161     -0.000622     -0.000845
      9.53152      7.44700     10.07771         0.000161     -0.000622     -0.000845
      9.49516      7.49854     15.28825         0.000161     -0.000622     -0.000845
      2.25600      1.73244      3.55990        -0.001476     -0.000575     -0.001506
      2.21964      1.78399      8.77044        -0.001476     -0.000575     -0.001506
      3.58065      6.28757      5.71624        -0.001476     -0.000575     -0.001506
      3.54429      6.33912     10.92678        -0.001476     -0.000575     -0.001506
      6.86450      1.75627      5.64868        -0.001476     -0.000575     -0.001506
      6.82814      1.80781     10.85922        -0.001476     -0.000575     -0.001506
      8.18916      6.31140      7.80502        -0.001476     -0.000575     -0.001506
      8.15279      6.36294     13.01556        -0.001476     -0.000575     -0.001506
 -----------------------------------------------------------------------------------
    total drift:                               -0.035026      0.004915     -0.008356


--------------------------------------------------------------------------------------------------------



  FREE ENERGIE OF THE ION-ELECTRON SYSTEM (eV)
  ---------------------------------------------------
  free  energy   TOTEN  =      -877.39009195 eV

  energy  without entropy=     -877.39009195  energy(sigma->0) =     -877.39009195
 
 d Force = 0.3952948E-05[ 0.690E-06, 0.722E-05]  d Energy = 0.4009680E-05-0.567E-07
 d Force =-0.1495009E-01[-0.150E-01,-0.149E-01]  d Ewald  =-0.1571006E-01 0.760E-03


--------------------------------------------------------------------------------------------------------


    POTLOK:  cpu time    0.2946: real time    0.3097


--------------------------------------------------------------------------------------------------------




--------------------------------------------------------------------------------------------------------


  
 reached required accuracy - stopping structural energy minimisation
     LOOP+:  cpu time   27.2673: real time   27.3491
    4ORBIT:  cpu time    0.0000: real time    0.0000
 BZINTS: Fermi energy:    5.078729;  384.000000 electrons
         Band energy:-0.383736E+03;  BLOECHL correction:   -0.000000

 total amount of memory used by VASP MPI-rank0  1557237. kBytes
=======================================================================

   base      :      30000. kBytes
   nonlr-proj:      51734. kBytes
   fftplans  :     200616. kBytes
   grid      :     358473. kBytes
   one-center:        368. kBytes
   wavefun   :     916046. kBytes
 
  
  
 General timing and accounting informations for this job:
 ========================================================
  
                  Total CPU time used (sec):     1228.506
                            User time (sec):     1017.239
                          System time (sec):      211.267
                         Elapsed time (sec):     1226.398
  
                   Maximum memory used (kb):     3583804.
                   Average memory used (kb):          N/A
  
                          Minor page faults:     17510276
                          Major page faults:            0
                 Voluntary context switches:       265013
