<?xml version="1.0" encoding="ISO-8859-1"?>
<modeling>
 <generator>
  <i name="program" type="string">vasp </i>
  <i name="version" type="string">6.2.0  </i>
  <i name="subversion" type="string">18Jan21 (build Feb 25 2021 07:51:20) complex                          parallel </i>
  <i name="platform" type="string">LinuxPGI </i>
  <i name="date" type="string">2022 04 12 </i>
  <i name="time" type="string">13:24:52 </i>
 </generator>
 <incar>
  <i type="string" name="PREC">Accurate</i>
  <i type="string" name="ALGO">Fast</i>
  <i type="int" name="IBRION">     2</i>
  <i name="EDIFF">      0.00000100</i>
  <i type="int" name="NSW">   300</i>
  <i type="int" name="ISIF">     4</i>
  <i name="ENCUT">    700.00000000</i>
  <i type="string" name="LREAL">Auto</i>
  <i type="int" name="ISMEAR">    -5</i>
  <i name="SIGMA">      0.05000000</i>
  <i type="logical" name="LWAVE"> F  </i>
 </incar>
 <primitive_cell>
  <structure name="primitive_cell" >
   <crystal>
    <varray name="basis" >
     <v>      -1.33837350      -4.54978500      -2.14292350 </v>
     <v>       0.02572200      -0.03601650      -5.20403150 </v>
     <v>       4.61954350       0.02509450       2.09557150 </v>
    </varray>
    <i name="volume">    109.19152211 </i>
    <varray name="rec_basis" >
     <v>       0.00050478      -0.22065955       0.00152965 </v>
     <v>       0.08682564       0.06497456      -0.19217924 </v>
     <v>       0.21613440      -0.06429124       0.00151324 </v>
    </varray>
   </crystal>
   <varray name="positions" >
    <v>       0.19248400       0.19248400       0.31584600 </v>
    <v>       0.19532400       0.68556000       0.80326400 </v>
    <v>       0.68556000       0.19532400       0.80326400 </v>
    <v>       0.80667000       0.80667000       0.68273200 </v>
    <v>       0.80632800       0.31257800       0.19740000 </v>
    <v>       0.31257800       0.80632800       0.19740000 </v>
    <v>       0.00520200       0.32640400       0.98889400 </v>
    <v>       0.32640400       0.00520200       0.98889400 </v>
    <v>       0.99410000       0.99410000       0.34159000 </v>
    <v>       0.99449000       0.67127600       0.00695000 </v>
    <v>       0.67127600       0.99449000       0.00695000 </v>
    <v>       0.50198200       0.50198200       0.49599000 </v>
    <v>       0.00414400       0.00414400       0.67667200 </v>
    <v>       0.38112600       0.38112600       0.61217600 </v>
    <v>       0.62233000       0.62233000       0.38197800 </v>
   </varray>
  </structure>
  <varray name="primitive_index" >
   <v type="int" >        1 </v>
   <v type="int" >        9 </v>
   <v type="int" >       17 </v>
   <v type="int" >       28 </v>
   <v type="int" >       35 </v>
   <v type="int" >       42 </v>
   <v type="int" >       53 </v>
   <v type="int" >       61 </v>
   <v type="int" >       68 </v>
   <v type="int" >       75 </v>
   <v type="int" >       82 </v>
   <v type="int" >       89 </v>
   <v type="int" >       97 </v>
   <v type="int" >      105 </v>
   <v type="int" >      113 </v>
  </varray>
 </primitive_cell>
 <kpoints>
  <generation param="Gamma">
   <v type="int" name="divisions">       2        2        2 </v>
   <v name="usershift">      0.00000000       0.00000000       0.00000000 </v>
   <v name="genvec1">      0.50000000       0.00000000       0.00000000 </v>
   <v name="genvec2">     -0.00000000       0.50000000      -0.00000000 </v>
   <v name="genvec3">      0.00000000       0.00000000       0.50000000 </v>
   <v name="shift">      0.00000000       0.00000000       0.00000000 </v>
  </generation>
  <varray name="kpointlist" >
   <v>       0.00000000       0.00000000       0.00000000 </v>
   <v>       0.50000000       0.00000000       0.00000000 </v>
   <v>       0.00000000       0.50000000       0.00000000 </v>
   <v>       0.50000000       0.50000000       0.00000000 </v>
   <v>       0.00000000       0.50000000       0.50000000 </v>
   <v>       0.50000000       0.50000000       0.50000000 </v>
  </varray>
  <varray name="weights" >
   <v>       0.12500000 </v>
   <v>       0.12500000 </v>
   <v>       0.25000000 </v>
   <v>       0.25000000 </v>
   <v>       0.12500000 </v>
   <v>       0.12500000 </v>
  </varray>
  <varray name="tetrahedronlist"  type="int" >
   <v type="int" >        4        1        3        4        6 </v>
   <v type="int" >        4        1        2        4        6 </v>
   <v type="int" >        4        1        3        5        6 </v>
   <v type="int" >        4        2        3        4        5 </v>
   <v type="int" >        4        1        2        3        5 </v>
   <v type="int" >        4        2        4        5        6 </v>
   <v type="int" >        4        1        2        3        4 </v>
   <v type="int" >        4        2        3        4        4 </v>
   <v type="int" >        4        3        4        4        6 </v>
   <v type="int" >        4        1        3        3        4 </v>
   <v type="int" >        4        3        3        4        5 </v>
   <v type="int" >        4        3        4        5        6 </v>
  </varray>
  <i name="volumeweight">      0.02083333 </i>
 </kpoints>
 <parameters>
  <separator name="general" >
   <i type="string" name="SYSTEM">unknown system</i>
   <i type="logical" name="LCOMPAT"> F  </i>
  </separator>
  <separator name="electronic" >
   <i type="string" name="PREC">accura</i>
   <i name="ENMAX">    700.00000000</i>
   <i name="ENAUG">    644.87300000</i>
   <i name="EDIFF">      0.00000100</i>
   <i type="int" name="IALGO">    68</i>
   <i type="int" name="IWAVPR">    11</i>
   <i type="int" name="NBANDS">   253</i>
   <i type="int" name="NBANDSLOW">    -1</i>
   <i type="int" name="NBANDSHIGH">    -1</i>
   <i name="NELECT">    384.00000000</i>
   <i type="int" name="TURBO">     0</i>
   <i type="int" name="IRESTART">     0</i>
   <i type="int" name="NREBOOT">     0</i>
   <i type="int" name="NMIN">     0</i>
   <i name="EREF">      0.00000000</i>
   <separator name="electronic smearing" >
    <i type="int" name="ISMEAR">    -5</i>
    <i name="SIGMA">      0.05000000</i>
    <i name="KSPACING">      0.50000000</i>
    <i type="logical" name="KGAMMA"> T  </i>
    <i type="logical" name="KBLOWUP"> T  </i>
   </separator>
   <separator name="electronic projectors" >
    <i type="logical" name="LREAL"> T  </i>
    <v name="ROPT">     -0.00025000     -0.00025000</v>
    <i type="int" name="LMAXPAW">  -100</i>
    <i type="int" name="LMAXMIX">     2</i>
    <i type="logical" name="NLSPLINE"> F  </i>
   </separator>
   <separator name="electronic startup" >
    <i type="int" name="ISTART">     0</i>
    <i type="int" name="ICHARG">     2</i>
    <i type="int" name="INIWAV">     1</i>
   </separator>
   <separator name="electronic spin" >
    <i type="int" name="ISPIN">     1</i>
    <i type="logical" name="LNONCOLLINEAR"> F  </i>
    <v name="MAGMOM">      1.00000000      1.00000000      1.00000000      1.00000000      1.00000000      1.00000000      1.00000000      1.00000000      1.00000000      1.00000000      1.00000000      1.00000000      1.00000000      1.00000000      1.00000000      1.00000000      1.00000000      1.00000000      1.00000000      1.00000000
      1.00000000      1.00000000      1.00000000      1.00000000      1.00000000      1.00000000      1.00000000      1.00000000      1.00000000      1.00000000      1.00000000      1.00000000      1.00000000      1.00000000      1.00000000      1.00000000      1.00000000      1.00000000      1.00000000      1.00000000
      1.00000000      1.00000000      1.00000000      1.00000000      1.00000000      1.00000000      1.00000000      1.00000000      1.00000000      1.00000000      1.00000000      1.00000000      1.00000000      1.00000000      1.00000000      1.00000000      1.00000000      1.00000000      1.00000000      1.00000000
      1.00000000      1.00000000      1.00000000      1.00000000      1.00000000      1.00000000      1.00000000      1.00000000      1.00000000      1.00000000      1.00000000      1.00000000      1.00000000      1.00000000      1.00000000      1.00000000      1.00000000      1.00000000      1.00000000      1.00000000
      1.00000000      1.00000000      1.00000000      1.00000000      1.00000000      1.00000000      1.00000000      1.00000000      1.00000000      1.00000000      1.00000000      1.00000000      1.00000000      1.00000000      1.00000000      1.00000000      1.00000000      1.00000000      1.00000000      1.00000000
      1.00000000      1.00000000      1.00000000      1.00000000      1.00000000      1.00000000      1.00000000      1.00000000      1.00000000      1.00000000      1.00000000      1.00000000      1.00000000      1.00000000      1.00000000      1.00000000      1.00000000      1.00000000      1.00000000      1.00000000
</v>
    <i name="NUPDOWN">     -1.00000000</i>
    <i type="logical" name="LSORBIT"> F  </i>
    <v name="SAXIS">      0.00000000      0.00000000      1.00000000</v>
    <i type="logical" name="LSPIRAL"> F  </i>
    <v name="QSPIRAL">      0.00000000      0.00000000      0.00000000</v>
    <i type="logical" name="LZEROZ"> F  </i>
   </separator>
   <separator name="electronic exchange-correlation" >
    <i type="logical" name="LASPH"> F  </i>
    <i type="logical" name="LMETAGGA"> F  </i>
   </separator>
   <separator name="electronic convergence" >
    <i type="int" name="NELM">    60</i>
    <i type="int" name="NELMDL">    -5</i>
    <i type="int" name="NELMIN">     2</i>
    <i name="ENINI">    700.00000000</i>
    <separator name="electronic convergence detail" >
     <i type="logical" name="LDIAG"> T  </i>
     <i type="logical" name="LSUBROT"> F  </i>
     <i name="WEIMIN">      0.00100000</i>
     <i name="EBREAK">      0.00000000</i>
     <i name="DEPER">      0.30000000</i>
     <i type="int" name="NRMM">     4</i>
     <i name="TIME">      0.40000000</i>
    </separator>
   </separator>
   <separator name="electronic mixer" >
    <i name="AMIX">      0.40000000</i>
    <i name="BMIX">      1.00000000</i>
    <i name="AMIN">      0.10000000</i>
    <i name="AMIX_MAG">      1.60000000</i>
    <i name="BMIX_MAG">      1.00000000</i>
    <separator name="electronic mixer details" >
     <i type="int" name="IMIX">     4</i>
     <i type="logical" name="MIXFIRST"> F  </i>
     <i type="int" name="MAXMIX">   -45</i>
     <i name="WC">    100.00000000</i>
     <i type="int" name="INIMIX">     1</i>
     <i type="int" name="MIXPRE">     1</i>
     <i type="int" name="MREMOVE">     5</i>
    </separator>
   </separator>
   <separator name="electronic dipolcorrection" >
    <i type="logical" name="LDIPOL"> F  </i>
    <i type="logical" name="LMONO"> F  </i>
    <i type="int" name="IDIPOL">     0</i>
    <i name="EPSILON">      1.00000000</i>
    <v name="DIPOL">   -100.00000000   -100.00000000   -100.00000000</v>
    <i name="EFIELD">      0.00000000</i>
   </separator>
  </separator>
  <separator name="grids" >
   <i type="int" name="NGX">    90</i>
   <i type="int" name="NGY">    90</i>
   <i type="int" name="NGZ">    90</i>
   <i type="int" name="NGXF">   180</i>
   <i type="int" name="NGYF">   180</i>
   <i type="int" name="NGZF">   180</i>
   <i type="logical" name="ADDGRID"> F  </i>
  </separator>
  <separator name="ionic" >
   <i type="int" name="NSW">   300</i>
   <i type="int" name="IBRION">     2</i>
   <i type="int" name="MDALGO">     0</i>
   <i type="int" name="ISIF">     4</i>
   <i name="PSTRESS">      0.00000000</i>
   <i name="EDIFFG">      0.00001000</i>
   <i type="int" name="NFREE">     1</i>
   <i name="POTIM">      0.50000000</i>
   <i name="SMASS">     -3.00000000</i>
   <i name="SCALEE">      1.00000000</i>
  </separator>
  <separator name="ionic md" >
   <i name="TEBEG">      0.00010000</i>
   <i name="TEEND">      0.00010000</i>
   <i type="int" name="NBLOCK">     1</i>
   <i type="int" name="KBLOCK">   300</i>
   <i type="int" name="NPACO">   256</i>
   <i name="APACO">     16.00000000</i>
  </separator>
  <separator name="symmetry" >
   <i type="int" name="ISYM">     2</i>
   <i name="SYMPREC">      0.00001000</i>
  </separator>
  <separator name="dos" >
   <i type="int" name="LORBIT">     0</i>
   <v name="RWIGS">     -1.00000000     -1.00000000</v>
   <i type="int" name="NEDOS">   301</i>
   <i name="EMIN">     10.00000000</i>
   <i name="EMAX">    -10.00000000</i>
   <i name="EFERMI">      0.00000000</i>
  </separator>
  <separator name="writing" >
   <i type="int" name="NWRITE">     2</i>
   <i type="logical" name="LWAVE"> F  </i>
   <i type="logical" name="LDOWNSAMPLE"> F  </i>
   <i type="logical" name="LCHARG"> T  </i>
   <i type="logical" name="LPARD"> F  </i>
   <i type="logical" name="LVTOT"> F  </i>
   <i type="logical" name="LVHAR"> F  </i>
   <i type="logical" name="LELF"> F  </i>
   <i type="logical" name="LOPTICS"> F  </i>
   <v name="STM">      0.00000000      0.00000000      0.00000000      0.00000000      0.00000000      0.00000000      0.00000000</v>
  </separator>
  <separator name="performance" >
   <i type="int" name="NPAR">     1</i>
   <i type="int" name="NSIM">     4</i>
   <i type="int" name="NBLK">    -1</i>
   <i type="logical" name="LPLANE"> T  </i>
   <i type="logical" name="LSCALAPACK"> T  </i>
   <i type="logical" name="LSCAAWARE"> F  </i>
   <i type="logical" name="LSCALU"> F  </i>
   <i type="logical" name="LASYNC"> F  </i>
   <i type="logical" name="LORBITALREAL"> F  </i>
  </separator>
  <separator name="miscellaneous" >
   <i type="int" name="IDIOT">     3</i>
   <i type="int" name="PHON_NSTRUCT">    -1</i>
   <i type="logical" name="LMUSIC"> F  </i>
   <v name="POMASS">     10.81100000     12.01100000</v>
   <v name="DARWINR">      0.00000000      0.00000000</v>
   <v name="DARWINV">      1.00000000      1.00000000</v>
   <i type="logical" name="LCORR"> T  </i>
  </separator>
  <i type="logical" name="GGA_COMPAT"> T  </i>
  <i type="logical" name="LBERRY"> F  </i>
  <i type="int" name="ICORELEVEL">     0</i>
  <i type="logical" name="LDAU"> F  </i>
  <i type="int" name="I_CONSTRAINED_M">     0</i>
  <separator name="electronic exchange-correlation" >
   <i type="string" name="GGA">--</i>
   <i type="int" name="VOSKOWN">     0</i>
   <i type="logical" name="LHFCALC"> F  </i>
   <i type="string" name="PRECFOCK"></i>
   <i type="logical" name="LSYMGRAD"> F  </i>
   <i type="logical" name="LHFONE"> F  </i>
   <i type="logical" name="LRHFCALC"> F  </i>
   <i type="logical" name="LTHOMAS"> F  </i>
   <i type="logical" name="LMODELHF"> F  </i>
   <i type="logical" name="LFOCKACE"> F  </i>
   <i name="ENCUT4O">     -1.00000000</i>
   <i type="int" name="EXXOEP">     0</i>
   <i type="int" name="FOURORBIT">     0</i>
   <i name="AEXX">      0.00000000</i>
   <i name="HFALPHA">      0.00000000</i>
   <i name="MCALPHA">      0.00000000</i>
   <i name="ALDAX">      1.00000000</i>
   <i name="AGGAX">      1.00000000</i>
   <i name="ALDAC">      1.00000000</i>
   <i name="AGGAC">      1.00000000</i>
   <i type="int" name="NKREDX">     1</i>
   <i type="int" name="NKREDY">     1</i>
   <i type="int" name="NKREDZ">     1</i>
   <i type="logical" name="SHIFTRED"> F  </i>
   <i type="logical" name="ODDONLY"> F  </i>
   <i type="logical" name="EVENONLY"> F  </i>
   <i type="int" name="LMAXFOCK">     0</i>
   <i type="int" name="NMAXFOCKAE">     0</i>
   <i type="logical" name="LFOCKAEDFT"> F  </i>
   <i name="HFSCREEN">      0.00000000</i>
   <i name="HFSCREENC">      0.00000000</i>
   <i type="int" name="NBANDSGWLOW">     0</i>
  </separator>
  <separator name="vdW DFT" >
   <i type="logical" name="LUSE_VDW"> F  </i>
   <i name="Zab_VDW">     -0.84910000</i>
   <i name="PARAM1">      0.12340000</i>
   <i name="PARAM2">      1.00000000</i>
   <i name="PARAM3">      0.00000000</i>
  </separator>
  <separator name="model GW" >
   <i type="int" name="MODEL_GW">     0</i>
   <i name="MODEL_EPS0">      4.36766088</i>
   <i name="MODEL_ALPHA">      1.00000000</i>
  </separator>
  <separator name="linear response parameters" >
   <i type="logical" name="LEPSILON"> F  </i>
   <i type="logical" name="LRPA"> F  </i>
   <i type="logical" name="LNABLA"> F  </i>
   <i type="logical" name="LVEL"> F  </i>
   <i type="int" name="KINTER">     0</i>
   <i name="CSHIFT">      0.10000000</i>
   <i name="OMEGAMAX">     -1.00000000</i>
   <i name="DEG_THRESHOLD">      0.00200000</i>
   <i name="RTIME">     -0.10000000</i>
   <i name="WPLASMAI">      0.00000000</i>
   <v name="DFIELD">      0.00000000      0.00000000      0.00000000</v>
   <v name="WPLASMA">      0.00000000      0.00000000      0.00000000      0.00000000      0.00000000      0.00000000      0.00000000      0.00000000      0.00000000</v>
  </separator>
  <separator name="orbital magnetization" >
   <i type="logical" name="NUCIND"> F  </i>
   <v name="MAGPOS">      0.00000000      0.00000000      0.00000000</v>
   <i type="logical" name="LNICSALL"> T  </i>
   <i type="logical" name="ORBITALMAG"> F  </i>
   <i type="logical" name="LMAGBLOCH"> F  </i>
   <i type="logical" name="LCHIMAG"> F  </i>
   <i type="logical" name="LGAUGE"> T  </i>
   <i type="int" name="MAGATOM">     0</i>
   <v name="MAGDIPOL">      0.00000000      0.00000000      0.00000000</v>
   <v name="AVECCONST">      0.00000000      0.00000000      0.00000000</v>
  </separator>
  <separator name="response functions" >
   <i type="logical" name="LFINITE_TEMPERATURE"> F  </i>
   <i type="logical" name="LADDER"> F  </i>
   <i type="logical" name="LRPAFORCE"> F  </i>
   <i type="logical" name="LFXC"> F  </i>
   <i type="logical" name="LHARTREE"> T  </i>
   <i type="int" name="IBSE">     0</i>
   <v type="int" name="KPOINT">    -1     0     0     0</v>
   <i type="logical" name="LTCTC"> F  </i>
   <i type="logical" name="LTCTE"> F  </i>
   <i type="logical" name="LTETE"> F  </i>
   <i type="logical" name="LTRIPLET"> F  </i>
   <i type="logical" name="LFXCEPS"> F  </i>
   <i type="logical" name="LFXHEG"> F  </i>
   <i type="int" name="NATURALO">     2</i>
   <i type="logical" name="LHOLEGF"> F  </i>
   <i type="logical" name="L2ORDER"> F  </i>
   <i type="logical" name="LDMP1"> F  </i>
   <i type="logical" name="LMP2LT"> F  </i>
   <i type="logical" name="LSMP2LT"> F  </i>
   <i type="logical" name="LGWLF"> F  </i>
   <i name="ENCUTGW">     -2.00000000</i>
   <i name="ENCUTGWSOFT">     -2.00000000</i>
   <i name="ENCUTLF">     -1.00000000</i>
   <i type="logical" name="LESF_SPLINES"> F  </i>
   <i type="int" name="LMAXMP2">    -1</i>
   <i name="SCISSOR">      0.00000000</i>
   <i type="int" name="NOMEGA">     0</i>
   <i type="int" name="NOMEGAR">     0</i>
   <i type="int" name="NBANDSGW">    -1</i>
   <i type="int" name="NBANDSO">    -1</i>
   <i type="int" name="NBANDSV">    -1</i>
   <i type="int" name="NELM">     1</i>
   <i type="int" name="NELMHF">     1</i>
   <i type="int" name="DIM">     3</i>
   <i type="int" name="IESPILON">     4</i>
   <i type="int" name="ANTIRES">     0</i>
   <i name="OMEGAMAX">    -30.00000000</i>
   <i name="OMEGAMIN">    -30.00000000</i>
   <i name="OMEGATL">   -200.00000000</i>
   <i type="int" name="OMEGAGRID">     0</i>
   <i name="CSHIFT">     -0.10000000</i>
   <i type="logical" name="LSELFENERGY"> F  </i>
   <i type="logical" name="LSPECTRAL"> F  </i>
   <i type="logical" name="LSPECTRALGW"> F  </i>
   <i type="logical" name="LSINGLES"> F  </i>
   <i type="logical" name="LFERMIGW"> F  </i>
   <i type="logical" name="ODDONLYGW"> F  </i>
   <i type="logical" name="EVENONLYGW"> F  </i>
   <i type="int" name="NKREDLFX">     1</i>
   <i type="int" name="NKREDLFY">     1</i>
   <i type="int" name="NKREDLFZ">     1</i>
   <i type="int" name="MAXMEM">  2800</i>
   <i type="int" name="TELESCOPE">     0</i>
   <i type="int" name="NTAUPAR">    -1</i>
   <i type="int" name="NOMEGAPAR">    -1</i>
   <i name="DAMP_NEWTON">      0.80000001</i>
   <i name="LAMBDA">      1.00000000</i>
  </separator>
  <separator name="External order field" >
   <i name="OFIELD_KAPPA">      0.00000000</i>
   <v name="OFIELD_K">      0.00000000      0.00000000      0.00000000</v>
   <i name="OFIELD_Q6_NEAR">      0.00000000</i>
   <i name="OFIELD_Q6_FAR">      0.00000000</i>
   <i name="OFIELD_A">      0.00000000</i>
  </separator>
 </parameters>
 <atominfo>
  <atoms>     120 </atoms>
  <types>       2 </types>
  <array name="atoms" >
   <dimension dim="1">ion</dimension>
   <field type="string">element</field>
   <field type="int">atomtype</field>
   <set>
    <rc><c>B </c><c>   1</c></rc>
    <rc><c>B </c><c>   1</c></rc>
    <rc><c>B </c><c>   1</c></rc>
    <rc><c>B </c><c>   1</c></rc>
    <rc><c>B </c><c>   1</c></rc>
    <rc><c>B </c><c>   1</c></rc>
    <rc><c>B </c><c>   1</c></rc>
    <rc><c>B </c><c>   1</c></rc>
    <rc><c>B </c><c>   1</c></rc>
    <rc><c>B </c><c>   1</c></rc>
    <rc><c>B </c><c>   1</c></rc>
    <rc><c>B </c><c>   1</c></rc>
    <rc><c>B </c><c>   1</c></rc>
    <rc><c>B </c><c>   1</c></rc>
    <rc><c>B </c><c>   1</c></rc>
    <rc><c>B </c><c>   1</c></rc>
    <rc><c>B </c><c>   1</c></rc>
    <rc><c>B </c><c>   1</c></rc>
    <rc><c>B </c><c>   1</c></rc>
    <rc><c>B </c><c>   1</c></rc>
    <rc><c>B </c><c>   1</c></rc>
    <rc><c>B </c><c>   1</c></rc>
    <rc><c>B </c><c>   1</c></rc>
    <rc><c>B </c><c>   1</c></rc>
    <rc><c>B </c><c>   1</c></rc>
    <rc><c>B </c><c>   1</c></rc>
    <rc><c>B </c><c>   1</c></rc>
    <rc><c>B </c><c>   1</c></rc>
    <rc><c>B </c><c>   1</c></rc>
    <rc><c>B </c><c>   1</c></rc>
    <rc><c>B </c><c>   1</c></rc>
    <rc><c>B </c><c>   1</c></rc>
    <rc><c>B </c><c>   1</c></rc>
    <rc><c>B </c><c>   1</c></rc>
    <rc><c>B </c><c>   1</c></rc>
    <rc><c>B </c><c>   1</c></rc>
    <rc><c>B </c><c>   1</c></rc>
    <rc><c>B </c><c>   1</c></rc>
    <rc><c>B </c><c>   1</c></rc>
    <rc><c>B </c><c>   1</c></rc>
    <rc><c>B </c><c>   1</c></rc>
    <rc><c>B </c><c>   1</c></rc>
    <rc><c>B </c><c>   1</c></rc>
    <rc><c>B </c><c>   1</c></rc>
    <rc><c>B </c><c>   1</c></rc>
    <rc><c>B </c><c>   1</c></rc>
    <rc><c>B </c><c>   1</c></rc>
    <rc><c>B </c><c>   1</c></rc>
    <rc><c>B </c><c>   1</c></rc>
    <rc><c>B </c><c>   1</c></rc>
    <rc><c>B </c><c>   1</c></rc>
    <rc><c>B </c><c>   1</c></rc>
    <rc><c>B </c><c>   1</c></rc>
    <rc><c>B </c><c>   1</c></rc>
    <rc><c>B </c><c>   1</c></rc>
    <rc><c>B </c><c>   1</c></rc>
    <rc><c>B </c><c>   1</c></rc>
    <rc><c>B </c><c>   1</c></rc>
    <rc><c>B </c><c>   1</c></rc>
    <rc><c>B </c><c>   1</c></rc>
    <rc><c>B </c><c>   1</c></rc>
    <rc><c>B </c><c>   1</c></rc>
    <rc><c>B </c><c>   1</c></rc>
    <rc><c>B </c><c>   1</c></rc>
    <rc><c>B </c><c>   1</c></rc>
    <rc><c>B </c><c>   1</c></rc>
    <rc><c>B </c><c>   1</c></rc>
    <rc><c>B </c><c>   1</c></rc>
    <rc><c>B </c><c>   1</c></rc>
    <rc><c>B </c><c>   1</c></rc>
    <rc><c>B </c><c>   1</c></rc>
    <rc><c>B </c><c>   1</c></rc>
    <rc><c>B </c><c>   1</c></rc>
    <rc><c>B </c><c>   1</c></rc>
    <rc><c>B </c><c>   1</c></rc>
    <rc><c>B </c><c>   1</c></rc>
    <rc><c>B </c><c>   1</c></rc>
    <rc><c>B </c><c>   1</c></rc>
    <rc><c>B </c><c>   1</c></rc>
    <rc><c>B </c><c>   1</c></rc>
    <rc><c>B </c><c>   1</c></rc>
    <rc><c>B </c><c>   1</c></rc>
    <rc><c>B </c><c>   1</c></rc>
    <rc><c>B </c><c>   1</c></rc>
    <rc><c>B </c><c>   1</c></rc>
    <rc><c>B </c><c>   1</c></rc>
    <rc><c>B </c><c>   1</c></rc>
    <rc><c>B </c><c>   1</c></rc>
    <rc><c>B </c><c>   1</c></rc>
    <rc><c>B </c><c>   1</c></rc>
    <rc><c>B </c><c>   1</c></rc>
    <rc><c>B </c><c>   1</c></rc>
    <rc><c>B </c><c>   1</c></rc>
    <rc><c>B </c><c>   1</c></rc>
    <rc><c>B </c><c>   1</c></rc>
    <rc><c>B </c><c>   1</c></rc>
    <rc><c>C </c><c>   2</c></rc>
    <rc><c>C </c><c>   2</c></rc>
    <rc><c>C </c><c>   2</c></rc>
    <rc><c>C </c><c>   2</c></rc>
    <rc><c>C </c><c>   2</c></rc>
    <rc><c>C </c><c>   2</c></rc>
    <rc><c>C </c><c>   2</c></rc>
    <rc><c>C </c><c>   2</c></rc>
    <rc><c>C </c><c>   2</c></rc>
    <rc><c>C </c><c>   2</c></rc>
    <rc><c>C </c><c>   2</c></rc>
    <rc><c>C </c><c>   2</c></rc>
    <rc><c>C </c><c>   2</c></rc>
    <rc><c>C </c><c>   2</c></rc>
    <rc><c>C </c><c>   2</c></rc>
    <rc><c>C </c><c>   2</c></rc>
    <rc><c>C </c><c>   2</c></rc>
    <rc><c>C </c><c>   2</c></rc>
    <rc><c>C </c><c>   2</c></rc>
    <rc><c>C </c><c>   2</c></rc>
    <rc><c>C </c><c>   2</c></rc>
    <rc><c>C </c><c>   2</c></rc>
    <rc><c>C </c><c>   2</c></rc>
    <rc><c>C </c><c>   2</c></rc>
   </set>
  </array>
  <array name="atomtypes" >
   <dimension dim="1">type</dimension>
   <field type="int">atomspertype</field>
   <field type="string">element</field>
   <field>mass</field>
   <field>valence</field>
   <field type="string">pseudopotential</field>
   <set>
    <rc><c>  96</c><c>B </c><c>     10.81100000</c><c>      3.00000000</c><c>  PAW_PBE B 06Sep2000                   </c></rc>
    <rc><c>  24</c><c>C </c><c>     12.01100000</c><c>      4.00000000</c><c>  PAW_PBE C 08Apr2002                   </c></rc>
   </set>
  </array>
 </atominfo>
 <structure name="initialpos" >
  <crystal>
   <varray name="basis" >
    <v>       9.23908700       0.05018900       4.19114300 </v>
    <v>       2.67674700       9.09957000       4.28584700 </v>
    <v>      -0.05144400       0.07203300      10.40806300 </v>
   </varray>
   <i name="volume">    873.53217688 </i>
   <varray name="rec_basis" >
    <v>       0.10806720      -0.03214562       0.00075662 </v>
    <v>      -0.00025239       0.11032978      -0.00076483 </v>
    <v>      -0.04341282      -0.03248728       0.09608962 </v>
   </varray>
  </crystal>
  <varray name="positions" >
   <v>       0.15792300       0.40375800       0.40375800 </v>
   <v>       0.15792300       0.40375800       0.90375800 </v>
   <v>       0.15792300       0.90375800       0.40375800 </v>
   <v>       0.15792300       0.90375800       0.90375800 </v>
   <v>       0.65792300       0.40375800       0.40375800 </v>
   <v>       0.65792300       0.40375800       0.90375800 </v>
   <v>       0.65792300       0.90375800       0.40375800 </v>
   <v>       0.65792300       0.90375800       0.90375800 </v>
   <v>       0.40163200       0.40233800       0.15722000 </v>
   <v>       0.40163200       0.40233800       0.65722000 </v>
   <v>       0.40163200       0.90233800       0.15722000 </v>
   <v>       0.40163200       0.90233800       0.65722000 </v>
   <v>       0.90163200       0.40233800       0.15722000 </v>
   <v>       0.90163200       0.40233800       0.65722000 </v>
   <v>       0.90163200       0.90233800       0.15722000 </v>
   <v>       0.90163200       0.90233800       0.65722000 </v>
   <v>       0.40163200       0.15722000       0.40233800 </v>
   <v>       0.40163200       0.15722000       0.90233800 </v>
   <v>       0.40163200       0.65722000       0.40233800 </v>
   <v>       0.40163200       0.65722000       0.90233800 </v>
   <v>       0.90163200       0.15722000       0.40233800 </v>
   <v>       0.90163200       0.15722000       0.90233800 </v>
   <v>       0.90163200       0.65722000       0.40233800 </v>
   <v>       0.90163200       0.65722000       0.90233800 </v>
   <v>       0.34136600       0.09666500       0.09666500 </v>
   <v>       0.34136600       0.09666500       0.59666500 </v>
   <v>       0.34136600       0.59666500       0.09666500 </v>
   <v>       0.34136600       0.59666500       0.59666500 </v>
   <v>       0.84136600       0.09666500       0.09666500 </v>
   <v>       0.84136600       0.09666500       0.59666500 </v>
   <v>       0.84136600       0.59666500       0.09666500 </v>
   <v>       0.84136600       0.59666500       0.59666500 </v>
   <v>       0.09870000       0.09683600       0.34371100 </v>
   <v>       0.09870000       0.09683600       0.84371100 </v>
   <v>       0.09870000       0.59683600       0.34371100 </v>
   <v>       0.09870000       0.59683600       0.84371100 </v>
   <v>       0.59870000       0.09683600       0.34371100 </v>
   <v>       0.59870000       0.09683600       0.84371100 </v>
   <v>       0.59870000       0.59683600       0.34371100 </v>
   <v>       0.59870000       0.59683600       0.84371100 </v>
   <v>       0.09870000       0.34371100       0.09683600 </v>
   <v>       0.09870000       0.34371100       0.59683600 </v>
   <v>       0.09870000       0.84371100       0.09683600 </v>
   <v>       0.09870000       0.84371100       0.59683600 </v>
   <v>       0.59870000       0.34371100       0.09683600 </v>
   <v>       0.59870000       0.34371100       0.59683600 </v>
   <v>       0.59870000       0.84371100       0.09683600 </v>
   <v>       0.59870000       0.84371100       0.59683600 </v>
   <v>       0.49444700       0.49739900       0.33679800 </v>
   <v>       0.49444700       0.49739900       0.83679800 </v>
   <v>       0.49444700       0.99739900       0.33679800 </v>
   <v>       0.49444700       0.99739900       0.83679800 </v>
   <v>       0.99444700       0.49739900       0.33679800 </v>
   <v>       0.99444700       0.49739900       0.83679800 </v>
   <v>       0.99444700       0.99739900       0.33679800 </v>
   <v>       0.99444700       0.99739900       0.83679800 </v>
   <v>       0.49444700       0.33679800       0.49739900 </v>
   <v>       0.49444700       0.33679800       0.99739900 </v>
   <v>       0.49444700       0.83679800       0.49739900 </v>
   <v>       0.49444700       0.83679800       0.99739900 </v>
   <v>       0.99444700       0.33679800       0.49739900 </v>
   <v>       0.99444700       0.33679800       0.99739900 </v>
   <v>       0.99444700       0.83679800       0.49739900 </v>
   <v>       0.99444700       0.83679800       0.99739900 </v>
   <v>       0.17079500       0.00295000       0.00295000 </v>
   <v>       0.17079500       0.00295000       0.50295000 </v>
   <v>       0.17079500       0.50295000       0.00295000 </v>
   <v>       0.17079500       0.50295000       0.50295000 </v>
   <v>       0.67079500       0.00295000       0.00295000 </v>
   <v>       0.67079500       0.00295000       0.50295000 </v>
   <v>       0.67079500       0.50295000       0.00295000 </v>
   <v>       0.67079500       0.50295000       0.50295000 </v>
   <v>       0.00347500       0.00275500       0.16436200 </v>
   <v>       0.00347500       0.00275500       0.66436200 </v>
   <v>       0.00347500       0.50275500       0.16436200 </v>
   <v>       0.00347500       0.50275500       0.66436200 </v>
   <v>       0.50347500       0.00275500       0.16436200 </v>
   <v>       0.50347500       0.00275500       0.66436200 </v>
   <v>       0.50347500       0.50275500       0.16436200 </v>
   <v>       0.50347500       0.50275500       0.66436200 </v>
   <v>       0.00347500       0.16436200       0.00275500 </v>
   <v>       0.00347500       0.16436200       0.50275500 </v>
   <v>       0.00347500       0.66436200       0.00275500 </v>
   <v>       0.00347500       0.66436200       0.50275500 </v>
   <v>       0.50347500       0.16436200       0.00275500 </v>
   <v>       0.50347500       0.16436200       0.50275500 </v>
   <v>       0.50347500       0.66436200       0.00275500 </v>
   <v>       0.50347500       0.66436200       0.50275500 </v>
   <v>       0.24799500       0.24900900       0.24900900 </v>
   <v>       0.24799500       0.24900900       0.74900900 </v>
   <v>       0.24799500       0.74900900       0.24900900 </v>
   <v>       0.24799500       0.74900900       0.74900900 </v>
   <v>       0.74799500       0.24900900       0.24900900 </v>
   <v>       0.74799500       0.24900900       0.74900900 </v>
   <v>       0.74799500       0.74900900       0.24900900 </v>
   <v>       0.74799500       0.74900900       0.74900900 </v>
   <v>       0.33833600       0.49792800       0.49792800 </v>
   <v>       0.33833600       0.49792800       0.99792800 </v>
   <v>       0.33833600       0.99792800       0.49792800 </v>
   <v>       0.33833600       0.99792800       0.99792800 </v>
   <v>       0.83833600       0.49792800       0.49792800 </v>
   <v>       0.83833600       0.49792800       0.99792800 </v>
   <v>       0.83833600       0.99792800       0.49792800 </v>
   <v>       0.83833600       0.99792800       0.99792800 </v>
   <v>       0.30608800       0.30943700       0.30943700 </v>
   <v>       0.30608800       0.30943700       0.80943700 </v>
   <v>       0.30608800       0.80943700       0.30943700 </v>
   <v>       0.30608800       0.80943700       0.80943700 </v>
   <v>       0.80608800       0.30943700       0.30943700 </v>
   <v>       0.80608800       0.30943700       0.80943700 </v>
   <v>       0.80608800       0.80943700       0.30943700 </v>
   <v>       0.80608800       0.80943700       0.80943700 </v>
   <v>       0.19098900       0.18883500       0.18883500 </v>
   <v>       0.19098900       0.18883500       0.68883500 </v>
   <v>       0.19098900       0.68883500       0.18883500 </v>
   <v>       0.19098900       0.68883500       0.68883500 </v>
   <v>       0.69098900       0.18883500       0.18883500 </v>
   <v>       0.69098900       0.18883500       0.68883500 </v>
   <v>       0.69098900       0.68883500       0.18883500 </v>
   <v>       0.69098900       0.68883500       0.68883500 </v>
  </varray>
 </structure>
 <calculation>
  <scstep>
   <time name="dav">    4.99    4.99</time>
   <time name="total">    5.28    6.33</time>
   <energy>
    <i name="alphaZ">   1184.40993130 </i>
    <i name="ewald"> -11622.19771033 </i>
    <i name="hartreedc">  -1075.09491250 </i>
    <i name="XCdc">   1015.51328297 </i>
    <i name="pawpsdc">   6780.51620165 </i>
    <i name="pawaedc">  -6712.07122612 </i>
    <i name="eentropy">      0.00000000 </i>
    <i name="bandstr">   1599.26451674 </i>
    <i name="atom">  10363.97701633 </i>
    <i name="e_fr_energy">   1534.31710005 </i>
    <i name="e_wo_entrp">   1534.31710005 </i>
    <i name="e_0_energy">   1534.31710005 </i>
   </energy>
  </scstep>
  <scstep>
   <time name="dav">    5.73    5.73</time>
   <time name="total">    5.74    5.74</time>
   <energy>
    <i name="e_fr_energy">   -780.33800839 </i>
    <i name="e_wo_entrp">   -780.33800839 </i>
    <i name="e_0_energy">   -780.33800839 </i>
   </energy>
  </scstep>
  <scstep>
   <time name="dav">    5.74    5.74</time>
   <time name="total">    5.75    5.75</time>
   <energy>
    <i name="e_fr_energy">   -927.67294648 </i>
    <i name="e_wo_entrp">   -927.67294648 </i>
    <i name="e_0_energy">   -927.67294648 </i>
   </energy>
  </scstep>
  <scstep>
   <time name="dav">    5.65    5.65</time>
   <time name="total">    5.66    5.66</time>
   <energy>
    <i name="e_fr_energy">   -931.42409512 </i>
    <i name="e_wo_entrp">   -931.42409512 </i>
    <i name="e_0_energy">   -931.42409512 </i>
   </energy>
  </scstep>
  <scstep>
   <time name="dav">    5.64    5.64</time>
   <time name="total">    7.34    7.34</time>
   <energy>
    <i name="e_fr_energy">   -931.53035862 </i>
    <i name="e_wo_entrp">   -931.53035862 </i>
    <i name="e_0_energy">   -931.53035862 </i>
   </energy>
  </scstep>
  <scstep>
   <time name="diag">    1.06    1.06</time>
   <time name="diis">    4.52    4.47</time>
   <time name="orth">    0.03    0.03</time>
   <time name="total">    7.54    7.48</time>
   <energy>
    <i name="e_fr_energy">   -886.19849823 </i>
    <i name="e_wo_entrp">   -886.19849823 </i>
    <i name="e_0_energy">   -886.19849823 </i>
   </energy>
  </scstep>
  <scstep>
   <time name="diag">    1.06    1.06</time>
   <time name="diis">    4.50    4.45</time>
   <time name="orth">    0.03    0.03</time>
   <time name="total">    7.48    7.43</time>
   <energy>
    <i name="e_fr_energy">   -877.99149187 </i>
    <i name="e_wo_entrp">   -877.99149187 </i>
    <i name="e_0_energy">   -877.99149187 </i>
   </energy>
  </scstep>
  <scstep>
   <time name="diag">    1.07    1.07</time>
   <time name="diis">    4.52    4.47</time>
   <time name="orth">    0.03    0.03</time>
   <time name="total">    7.53    7.46</time>
   <energy>
    <i name="e_fr_energy">   -877.58879099 </i>
    <i name="e_wo_entrp">   -877.58879099 </i>
    <i name="e_0_energy">   -877.58879099 </i>
   </energy>
  </scstep>
  <scstep>
   <time name="diag">    1.07    1.07</time>
   <time name="diis">    4.51    4.47</time>
   <time name="orth">    0.03    0.03</time>
   <time name="total">    7.51    7.46</time>
   <energy>
    <i name="e_fr_energy">   -877.29650275 </i>
    <i name="e_wo_entrp">   -877.29650275 </i>
    <i name="e_0_energy">   -877.29650275 </i>
   </energy>
  </scstep>
  <scstep>
   <time name="diag">    1.06    1.06</time>
   <time name="diis">    4.60    4.55</time>
   <time name="orth">    0.03    0.03</time>
   <time name="total">    7.59    7.54</time>
   <energy>
    <i name="e_fr_energy">   -877.29729196 </i>
    <i name="e_wo_entrp">   -877.29729196 </i>
    <i name="e_0_energy">   -877.29729196 </i>
   </energy>
  </scstep>
  <scstep>
   <time name="diag">    1.06    1.06</time>
   <time name="diis">    4.52    4.47</time>
   <time name="orth">    0.03    0.03</time>
   <time name="total">    7.50    7.44</time>
   <energy>
    <i name="e_fr_energy">   -877.28745508 </i>
    <i name="e_wo_entrp">   -877.28745508 </i>
    <i name="e_0_energy">   -877.28745508 </i>
   </energy>
  </scstep>
  <scstep>
   <time name="diag">    1.06    1.06</time>
   <time name="diis">    4.57    4.53</time>
   <time name="orth">    0.03    0.03</time>
   <time name="total">    7.59    7.54</time>
   <energy>
    <i name="e_fr_energy">   -877.28904496 </i>
    <i name="e_wo_entrp">   -877.28904496 </i>
    <i name="e_0_energy">   -877.28904496 </i>
   </energy>
  </scstep>
  <scstep>
   <time name="diag">    1.07    1.07</time>
   <time name="diis">    4.65    4.61</time>
   <time name="orth">    0.03    0.03</time>
   <time name="total">    7.67    7.62</time>
   <energy>
    <i name="e_fr_energy">   -877.28845471 </i>
    <i name="e_wo_entrp">   -877.28845471 </i>
    <i name="e_0_energy">   -877.28845471 </i>
   </energy>
  </scstep>
  <scstep>
   <time name="diag">    1.06    1.07</time>
   <time name="diis">    4.50    4.45</time>
   <time name="orth">    0.03    0.03</time>
   <time name="total">    7.50    7.46</time>
   <energy>
    <i name="e_fr_energy">   -877.28846818 </i>
    <i name="e_wo_entrp">   -877.28846818 </i>
    <i name="e_0_energy">   -877.28846818 </i>
   </energy>
  </scstep>
  <scstep>
   <time name="diag">    1.06    1.06</time>
   <time name="diis">    4.56    4.52</time>
   <time name="orth">    0.03    0.03</time>
   <time name="total">    7.56    7.52</time>
   <energy>
    <i name="e_fr_energy">   -877.28844479 </i>
    <i name="e_wo_entrp">   -877.28844479 </i>
    <i name="e_0_energy">   -877.28844479 </i>
   </energy>
  </scstep>
  <scstep>
   <time name="diag">    1.06    1.06</time>
   <time name="diis">    4.50    4.46</time>
   <time name="orth">    0.03    0.03</time>
   <time name="total">    7.50    7.45</time>
   <energy>
    <i name="e_fr_energy">   -877.28844130 </i>
    <i name="e_wo_entrp">   -877.28844130 </i>
    <i name="e_0_energy">   -877.28844130 </i>
   </energy>
  </scstep>
  <scstep>
   <time name="diag">    1.07    1.06</time>
   <time name="diis">    4.36    4.33</time>
   <time name="orth">    0.03    0.03</time>
   <time name="total">    7.37    7.34</time>
   <energy>
    <i name="e_fr_energy">   -877.28844258 </i>
    <i name="e_wo_entrp">   -877.28844258 </i>
    <i name="e_0_energy">   -877.28844258 </i>
   </energy>
  </scstep>
  <scstep>
   <time name="diag">    1.07    1.07</time>
   <time name="diis">    3.86    3.83</time>
   <time name="orth">    0.03    0.03</time>
   <time name="total">    6.89    6.86</time>
   <energy>
    <i name="e_fr_energy">   -877.28844417 </i>
    <i name="e_wo_entrp">   -877.28844417 </i>
    <i name="e_0_energy">   -877.28844417 </i>
   </energy>
  </scstep>
  <scstep>
   <time name="diag">    1.06    1.06</time>
   <time name="diis">    2.89    2.88</time>
   <time name="orth">    0.03    0.03</time>
   <time name="total">    4.24    4.23</time>
   <energy>
    <i name="alphaZ">   1184.40993130 </i>
    <i name="ewald"> -11622.19771033 </i>
    <i name="hartreedc">  -1526.69465124 </i>
    <i name="XCdc">   1049.29246514 </i>
    <i name="pawpsdc">  35899.71777356 </i>
    <i name="pawaedc"> -35841.73900515 </i>
    <i name="eentropy">      0.00000000 </i>
    <i name="bandstr">   -384.05426374 </i>
    <i name="atom">  10363.97701633 </i>
    <i name="e_fr_energy">   -877.28844412 </i>
    <i name="e_wo_entrp">   -877.28844412 </i>
    <i name="e_0_energy">   -877.28844412 </i>
   </energy>
  </scstep>
  <structure>
   <crystal>
    <varray name="basis" >
     <v>       9.23908700       0.05018900       4.19114300 </v>
     <v>       2.67674700       9.09957000       4.28584700 </v>
     <v>      -0.05144400       0.07203300      10.40806300 </v>
    </varray>
    <i name="volume">    873.53217688 </i>
    <varray name="rec_basis" >
     <v>       0.10806720      -0.03214562       0.00075662 </v>
     <v>      -0.00025239       0.11032978      -0.00076483 </v>
     <v>      -0.04341282      -0.03248728       0.09608962 </v>
    </varray>
   </crystal>
   <varray name="positions" >
    <v>       0.15792300       0.40375800       0.40375800 </v>
    <v>       0.15792300       0.40375800       0.90375800 </v>
    <v>       0.15792300       0.90375800       0.40375800 </v>
    <v>       0.15792300       0.90375800       0.90375800 </v>
    <v>       0.65792300       0.40375800       0.40375800 </v>
    <v>       0.65792300       0.40375800       0.90375800 </v>
    <v>       0.65792300       0.90375800       0.40375800 </v>
    <v>       0.65792300       0.90375800       0.90375800 </v>
    <v>       0.40163200       0.40233800       0.15722000 </v>
    <v>       0.40163200       0.40233800       0.65722000 </v>
    <v>       0.40163200       0.90233800       0.15722000 </v>
    <v>       0.40163200       0.90233800       0.65722000 </v>
    <v>       0.90163200       0.40233800       0.15722000 </v>
    <v>       0.90163200       0.40233800       0.65722000 </v>
    <v>       0.90163200       0.90233800       0.15722000 </v>
    <v>       0.90163200       0.90233800       0.65722000 </v>
    <v>       0.40163200       0.15722000       0.40233800 </v>
    <v>       0.40163200       0.15722000       0.90233800 </v>
    <v>       0.40163200       0.65722000       0.40233800 </v>
    <v>       0.40163200       0.65722000       0.90233800 </v>
    <v>       0.90163200       0.15722000       0.40233800 </v>
    <v>       0.90163200       0.15722000       0.90233800 </v>
    <v>       0.90163200       0.65722000       0.40233800 </v>
    <v>       0.90163200       0.65722000       0.90233800 </v>
    <v>       0.34136600       0.09666500       0.09666500 </v>
    <v>       0.34136600       0.09666500       0.59666500 </v>
    <v>       0.34136600       0.59666500       0.09666500 </v>
    <v>       0.34136600       0.59666500       0.59666500 </v>
    <v>       0.84136600       0.09666500       0.09666500 </v>
    <v>       0.84136600       0.09666500       0.59666500 </v>
    <v>       0.84136600       0.59666500       0.09666500 </v>
    <v>       0.84136600       0.59666500       0.59666500 </v>
    <v>       0.09870000       0.09683600       0.34371100 </v>
    <v>       0.09870000       0.09683600       0.84371100 </v>
    <v>       0.09870000       0.59683600       0.34371100 </v>
    <v>       0.09870000       0.59683600       0.84371100 </v>
    <v>       0.59870000       0.09683600       0.34371100 </v>
    <v>       0.59870000       0.09683600       0.84371100 </v>
    <v>       0.59870000       0.59683600       0.34371100 </v>
    <v>       0.59870000       0.59683600       0.84371100 </v>
    <v>       0.09870000       0.34371100       0.09683600 </v>
    <v>       0.09870000       0.34371100       0.59683600 </v>
    <v>       0.09870000       0.84371100       0.09683600 </v>
    <v>       0.09870000       0.84371100       0.59683600 </v>
    <v>       0.59870000       0.34371100       0.09683600 </v>
    <v>       0.59870000       0.34371100       0.59683600 </v>
    <v>       0.59870000       0.84371100       0.09683600 </v>
    <v>       0.59870000       0.84371100       0.59683600 </v>
    <v>       0.49444700       0.49739900       0.33679800 </v>
    <v>       0.49444700       0.49739900       0.83679800 </v>
    <v>       0.49444700       0.99739900       0.33679800 </v>
    <v>       0.49444700       0.99739900       0.83679800 </v>
    <v>       0.99444700       0.49739900       0.33679800 </v>
    <v>       0.99444700       0.49739900       0.83679800 </v>
    <v>       0.99444700       0.99739900       0.33679800 </v>
    <v>       0.99444700       0.99739900       0.83679800 </v>
    <v>       0.49444700       0.33679800       0.49739900 </v>
    <v>       0.49444700       0.33679800       0.99739900 </v>
    <v>       0.49444700       0.83679800       0.49739900 </v>
    <v>       0.49444700       0.83679800       0.99739900 </v>
    <v>       0.99444700       0.33679800       0.49739900 </v>
    <v>       0.99444700       0.33679800       0.99739900 </v>
    <v>       0.99444700       0.83679800       0.49739900 </v>
    <v>       0.99444700       0.83679800       0.99739900 </v>
    <v>       0.17079500       0.00295000       0.00295000 </v>
    <v>       0.17079500       0.00295000       0.50295000 </v>
    <v>       0.17079500       0.50295000       0.00295000 </v>
    <v>       0.17079500       0.50295000       0.50295000 </v>
    <v>       0.67079500       0.00295000       0.00295000 </v>
    <v>       0.67079500       0.00295000       0.50295000 </v>
    <v>       0.67079500       0.50295000       0.00295000 </v>
    <v>       0.67079500       0.50295000       0.50295000 </v>
    <v>       0.00347500       0.00275500       0.16436200 </v>
    <v>       0.00347500       0.00275500       0.66436200 </v>
    <v>       0.00347500       0.50275500       0.16436200 </v>
    <v>       0.00347500       0.50275500       0.66436200 </v>
    <v>       0.50347500       0.00275500       0.16436200 </v>
    <v>       0.50347500       0.00275500       0.66436200 </v>
    <v>       0.50347500       0.50275500       0.16436200 </v>
    <v>       0.50347500       0.50275500       0.66436200 </v>
    <v>       0.00347500       0.16436200       0.00275500 </v>
    <v>       0.00347500       0.16436200       0.50275500 </v>
    <v>       0.00347500       0.66436200       0.00275500 </v>
    <v>       0.00347500       0.66436200       0.50275500 </v>
    <v>       0.50347500       0.16436200       0.00275500 </v>
    <v>       0.50347500       0.16436200       0.50275500 </v>
    <v>       0.50347500       0.66436200       0.00275500 </v>
    <v>       0.50347500       0.66436200       0.50275500 </v>
    <v>       0.24799500       0.24900900       0.24900900 </v>
    <v>       0.24799500       0.24900900       0.74900900 </v>
    <v>       0.24799500       0.74900900       0.24900900 </v>
    <v>       0.24799500       0.74900900       0.74900900 </v>
    <v>       0.74799500       0.24900900       0.24900900 </v>
    <v>       0.74799500       0.24900900       0.74900900 </v>
    <v>       0.74799500       0.74900900       0.24900900 </v>
    <v>       0.74799500       0.74900900       0.74900900 </v>
    <v>       0.33833600       0.49792800       0.49792800 </v>
    <v>       0.33833600       0.49792800       0.99792800 </v>
    <v>       0.33833600       0.99792800       0.49792800 </v>
    <v>       0.33833600       0.99792800       0.99792800 </v>
    <v>       0.83833600       0.49792800       0.49792800 </v>
    <v>       0.83833600       0.49792800       0.99792800 </v>
    <v>       0.83833600       0.99792800       0.49792800 </v>
    <v>       0.83833600       0.99792800       0.99792800 </v>
    <v>       0.30608800       0.30943700       0.30943700 </v>
    <v>       0.30608800       0.30943700       0.80943700 </v>
    <v>       0.30608800       0.80943700       0.30943700 </v>
    <v>       0.30608800       0.80943700       0.80943700 </v>
    <v>       0.80608800       0.30943700       0.30943700 </v>
    <v>       0.80608800       0.30943700       0.80943700 </v>
    <v>       0.80608800       0.80943700       0.30943700 </v>
    <v>       0.80608800       0.80943700       0.80943700 </v>
    <v>       0.19098900       0.18883500       0.18883500 </v>
    <v>       0.19098900       0.18883500       0.68883500 </v>
    <v>       0.19098900       0.68883500       0.18883500 </v>
    <v>       0.19098900       0.68883500       0.68883500 </v>
    <v>       0.69098900       0.18883500       0.18883500 </v>
    <v>       0.69098900       0.18883500       0.68883500 </v>
    <v>       0.69098900       0.68883500       0.18883500 </v>
    <v>       0.69098900       0.68883500       0.68883500 </v>
   </varray>
  </structure>
  <varray name="forces" >
   <v>       0.01008414      -0.01520884      -0.01793254 </v>
   <v>       0.01008414      -0.01520884      -0.01793254 </v>
   <v>       0.01008414      -0.01520884      -0.01793254 </v>
   <v>       0.01008414      -0.01520884      -0.01793254 </v>
   <v>       0.01008414      -0.01520884      -0.01793254 </v>
   <v>       0.01008414      -0.01520884      -0.01793254 </v>
   <v>       0.01008414      -0.01520884      -0.01793254 </v>
   <v>       0.01008414      -0.01520884      -0.01793254 </v>
   <v>      -0.11881649      -0.13101699       0.03109318 </v>
   <v>      -0.11881649      -0.13101699       0.03109318 </v>
   <v>      -0.11881649      -0.13101699       0.03109318 </v>
   <v>      -0.11881649      -0.13101699       0.03109318 </v>
   <v>      -0.11881649      -0.13101699       0.03109318 </v>
   <v>      -0.11881649      -0.13101699       0.03109318 </v>
   <v>      -0.11881649      -0.13101699       0.03109318 </v>
   <v>      -0.11881649      -0.13101699       0.03109318 </v>
   <v>      -0.04556144       0.11138271      -0.13329533 </v>
   <v>      -0.04556144       0.11138271      -0.13329533 </v>
   <v>      -0.04556144       0.11138271      -0.13329533 </v>
   <v>      -0.04556144       0.11138271      -0.13329533 </v>
   <v>      -0.04556144       0.11138271      -0.13329533 </v>
   <v>      -0.04556144       0.11138271      -0.13329533 </v>
   <v>      -0.04556144       0.11138271      -0.13329533 </v>
   <v>      -0.04556144       0.11138271      -0.13329533 </v>
   <v>      -0.04348669       0.03551179       0.03298542 </v>
   <v>      -0.04348669       0.03551179       0.03298542 </v>
   <v>      -0.04348669       0.03551179       0.03298542 </v>
   <v>      -0.04348669       0.03551179       0.03298542 </v>
   <v>      -0.04348669       0.03551179       0.03298542 </v>
   <v>      -0.04348669       0.03551179       0.03298542 </v>
   <v>      -0.04348669       0.03551179       0.03298542 </v>
   <v>      -0.04348669       0.03551179       0.03298542 </v>
   <v>       0.09629879       0.10001188       0.03395876 </v>
   <v>       0.09629879       0.10001188       0.03395876 </v>
   <v>       0.09629879       0.10001188       0.03395876 </v>
   <v>       0.09629879       0.10001188       0.03395876 </v>
   <v>       0.09629879       0.10001188       0.03395876 </v>
   <v>       0.09629879       0.10001188       0.03395876 </v>
   <v>       0.09629879       0.10001188       0.03395876 </v>
   <v>       0.09629879       0.10001188       0.03395876 </v>
   <v>       0.05496494      -0.03676111       0.12671426 </v>
   <v>       0.05496494      -0.03676111       0.12671426 </v>
   <v>       0.05496494      -0.03676111       0.12671426 </v>
   <v>       0.05496494      -0.03676111       0.12671426 </v>
   <v>       0.05496494      -0.03676111       0.12671426 </v>
   <v>       0.05496494      -0.03676111       0.12671426 </v>
   <v>       0.05496494      -0.03676111       0.12671426 </v>
   <v>       0.05496494      -0.03676111       0.12671426 </v>
   <v>      -0.02470520       0.01405737       0.07482515 </v>
   <v>      -0.02470520       0.01405737       0.07482515 </v>
   <v>      -0.02470520       0.01405737       0.07482515 </v>
   <v>      -0.02470520       0.01405737       0.07482515 </v>
   <v>      -0.02470520       0.01405737       0.07482515 </v>
   <v>      -0.02470520       0.01405737       0.07482515 </v>
   <v>      -0.02470520       0.01405737       0.07482515 </v>
   <v>      -0.02470520       0.01405737       0.07482515 </v>
   <v>      -0.00750177       0.07098325       0.03621966 </v>
   <v>      -0.00750177       0.07098325       0.03621966 </v>
   <v>      -0.00750177       0.07098325       0.03621966 </v>
   <v>      -0.00750177       0.07098325       0.03621966 </v>
   <v>      -0.00750177       0.07098325       0.03621966 </v>
   <v>      -0.00750177       0.07098325       0.03621966 </v>
   <v>      -0.00750177       0.07098325       0.03621966 </v>
   <v>      -0.00750177       0.07098325       0.03621966 </v>
   <v>      -0.19144255       0.05519212      -0.00392721 </v>
   <v>      -0.19144255       0.05519212      -0.00392721 </v>
   <v>      -0.19144255       0.05519212      -0.00392721 </v>
   <v>      -0.19144255       0.05519212      -0.00392721 </v>
   <v>      -0.19144255       0.05519212      -0.00392721 </v>
   <v>      -0.19144255       0.05519212      -0.00392721 </v>
   <v>      -0.19144255       0.05519212      -0.00392721 </v>
   <v>      -0.19144255       0.05519212      -0.00392721 </v>
   <v>       0.06410213       0.02311236       0.01457770 </v>
   <v>       0.06410213       0.02311236       0.01457770 </v>
   <v>       0.06410213       0.02311236       0.01457770 </v>
   <v>       0.06410213       0.02311236       0.01457770 </v>
   <v>       0.06410213       0.02311236       0.01457770 </v>
   <v>       0.06410213       0.02311236       0.01457770 </v>
   <v>       0.06410213       0.02311236       0.01457770 </v>
   <v>       0.06410213       0.02311236       0.01457770 </v>
   <v>       0.05140077      -0.01891624       0.04308029 </v>
   <v>       0.05140077      -0.01891624       0.04308029 </v>
   <v>       0.05140077      -0.01891624       0.04308029 </v>
   <v>       0.05140077      -0.01891624       0.04308029 </v>
   <v>       0.05140077      -0.01891624       0.04308029 </v>
   <v>       0.05140077      -0.01891624       0.04308029 </v>
   <v>       0.05140077      -0.01891624       0.04308029 </v>
   <v>       0.05140077      -0.01891624       0.04308029 </v>
   <v>       0.08676761       0.13297380       0.23474248 </v>
   <v>       0.08676761       0.13297380       0.23474248 </v>
   <v>       0.08676761       0.13297380       0.23474248 </v>
   <v>       0.08676761       0.13297380       0.23474248 </v>
   <v>       0.08676761       0.13297380       0.23474248 </v>
   <v>       0.08676761       0.13297380       0.23474248 </v>
   <v>       0.08676761       0.13297380       0.23474248 </v>
   <v>       0.08676761       0.13297380       0.23474248 </v>
   <v>       0.23821719      -0.03642748       0.05244046 </v>
   <v>       0.23821719      -0.03642748       0.05244046 </v>
   <v>       0.23821719      -0.03642748       0.05244046 </v>
   <v>       0.23821719      -0.03642748       0.05244046 </v>
   <v>       0.23821719      -0.03642748       0.05244046 </v>
   <v>       0.23821719      -0.03642748       0.05244046 </v>
   <v>       0.23821719      -0.03642748       0.05244046 </v>
   <v>       0.23821719      -0.03642748       0.05244046 </v>
   <v>      -0.10422325      -0.05437284      -0.12661978 </v>
   <v>      -0.10422325      -0.05437284      -0.12661978 </v>
   <v>      -0.10422325      -0.05437284      -0.12661978 </v>
   <v>      -0.10422325      -0.05437284      -0.12661978 </v>
   <v>      -0.10422325      -0.05437284      -0.12661978 </v>
   <v>      -0.10422325      -0.05437284      -0.12661978 </v>
   <v>      -0.10422325      -0.05437284      -0.12661978 </v>
   <v>      -0.10422325      -0.05437284      -0.12661978 </v>
   <v>      -0.06609818      -0.25052177      -0.39886250 </v>
   <v>      -0.06609818      -0.25052177      -0.39886250 </v>
   <v>      -0.06609818      -0.25052177      -0.39886250 </v>
   <v>      -0.06609818      -0.25052177      -0.39886250 </v>
   <v>      -0.06609818      -0.25052177      -0.39886250 </v>
   <v>      -0.06609818      -0.25052177      -0.39886250 </v>
   <v>      -0.06609818      -0.25052177      -0.39886250 </v>
   <v>      -0.06609818      -0.25052177      -0.39886250 </v>
  </varray>
  <varray name="stress" >
   <v>      -7.15662776      -1.03424120      -1.99382430 </v>
   <v>      -1.03424118      -2.11372642       5.42396625 </v>
   <v>      -1.99382426       5.42396624       1.00477723 </v>
  </varray>
  <energy>
   <i name="e_fr_energy">   -877.28844412 </i>
   <i name="e_wo_entrp">   -877.28844412 </i>
   <i name="e_0_energy">   -877.28844412 </i>
  </energy>
  <time name="totalsc">  150.77  151.39</time>
 </calculation>
 <calculation>
  <scstep>
   <time name="dav">    5.34    5.34</time>
   <time name="total">    7.24    7.24</time>
   <energy>
    <i name="alphaZ">   1184.40993130 </i>
    <i name="ewald"> -11622.86602747 </i>
    <i name="hartreedc">  -1527.46627827 </i>
    <i name="XCdc">   1049.23381303 </i>
    <i name="pawpsdc">  35899.59525531 </i>
    <i name="pawaedc"> -35841.61660084 </i>
    <i name="eentropy">      0.00000000 </i>
    <i name="bandstr">   -382.44935151 </i>
    <i name="atom">  10363.97701633 </i>
    <i name="e_fr_energy">   -877.18224211 </i>
    <i name="e_wo_entrp">   -877.18224211 </i>
    <i name="e_0_energy">   -877.18224211 </i>
   </energy>
  </scstep>
  <scstep>
   <time name="diag">    1.07    1.07</time>
   <time name="diis">    4.53    4.47</time>
   <time name="orth">    0.03    0.03</time>
   <time name="total">    7.54    7.48</time>
   <energy>
    <i name="e_fr_energy">   -877.18217579 </i>
    <i name="e_wo_entrp">   -877.18217579 </i>
    <i name="e_0_energy">   -877.18217579 </i>
   </energy>
  </scstep>
  <scstep>
   <time name="diag">    1.06    1.06</time>
   <time name="diis">    4.51    4.47</time>
   <time name="orth">    0.03    0.03</time>
   <time name="total">    7.52    7.47</time>
   <energy>
    <i name="e_fr_energy">   -877.16836985 </i>
    <i name="e_wo_entrp">   -877.16836985 </i>
    <i name="e_0_energy">   -877.16836985 </i>
   </energy>
  </scstep>
  <scstep>
   <time name="diag">    1.06    1.07</time>
   <time name="diis">    4.52    4.49</time>
   <time name="orth">    0.03    0.03</time>
   <time name="total">    7.52    7.50</time>
   <energy>
    <i name="e_fr_energy">   -877.16901464 </i>
    <i name="e_wo_entrp">   -877.16901464 </i>
    <i name="e_0_energy">   -877.16901464 </i>
   </energy>
  </scstep>
  <scstep>
   <time name="diag">    1.06    1.06</time>
   <time name="diis">    4.53    4.50</time>
   <time name="orth">    0.03    0.03</time>
   <time name="total">    7.53    7.49</time>
   <energy>
    <i name="e_fr_energy">   -877.16914165 </i>
    <i name="e_wo_entrp">   -877.16914165 </i>
    <i name="e_0_energy">   -877.16914165 </i>
   </energy>
  </scstep>
  <scstep>
   <time name="diag">    1.07    1.07</time>
   <time name="diis">    4.66    4.60</time>
   <time name="orth">    0.03    0.03</time>
   <time name="total">    7.68    7.63</time>
   <energy>
    <i name="e_fr_energy">   -877.16918997 </i>
    <i name="e_wo_entrp">   -877.16918997 </i>
    <i name="e_0_energy">   -877.16918997 </i>
   </energy>
  </scstep>
  <scstep>
   <time name="diag">    1.07    1.07</time>
   <time name="diis">    4.64    4.57</time>
   <time name="orth">    0.03    0.03</time>
   <time name="total">    7.65    7.58</time>
   <energy>
    <i name="e_fr_energy">   -877.16920295 </i>
    <i name="e_wo_entrp">   -877.16920295 </i>
    <i name="e_0_energy">   -877.16920295 </i>
   </energy>
  </scstep>
  <scstep>
   <time name="diag">    1.06    1.06</time>
   <time name="diis">    4.66    4.62</time>
   <time name="orth">    0.03    0.03</time>
   <time name="total">    7.67    7.63</time>
   <energy>
    <i name="e_fr_energy">   -877.16920519 </i>
    <i name="e_wo_entrp">   -877.16920519 </i>
    <i name="e_0_energy">   -877.16920519 </i>
   </energy>
  </scstep>
  <scstep>
   <time name="diag">    1.06    1.06</time>
   <time name="diis">    4.04    4.01</time>
   <time name="orth">    0.03    0.03</time>
   <time name="total">    5.39    5.36</time>
   <energy>
    <i name="alphaZ">   1184.40993130 </i>
    <i name="ewald"> -11622.86602747 </i>
    <i name="hartreedc">  -1527.38173916 </i>
    <i name="XCdc">   1049.18641097 </i>
    <i name="pawpsdc">  35831.01478491 </i>
    <i name="pawaedc"> -35772.99407196 </i>
    <i name="eentropy">      0.00000000 </i>
    <i name="bandstr">   -382.51551097 </i>
    <i name="atom">  10363.97701633 </i>
    <i name="e_fr_energy">   -877.16920606 </i>
    <i name="e_wo_entrp">   -877.16920606 </i>
    <i name="e_0_energy">   -877.16920606 </i>
   </energy>
  </scstep>
  <structure>
   <crystal>
    <varray name="basis" >
     <v>       9.22833822       0.05308439       4.19062252 </v>
     <v>       2.67023098       9.10534544       4.29903111 </v>
     <v>      -0.05595932       0.08442872      10.41675743 </v>
    </varray>
    <i name="volume">    873.53217688 </i>
    <varray name="rec_basis" >
     <v>       0.10816455      -0.03211756       0.00084138 </v>
     <v>      -0.00022799       0.11031519      -0.00089534 </v>
     <v>      -0.04342010      -0.03260668       0.09603019 </v>
    </varray>
   </crystal>
   <varray name="positions" >
    <v>       0.15799850       0.40367759       0.40367759 </v>
    <v>       0.15799850       0.40367759       0.90367759 </v>
    <v>       0.15799850       0.90367759       0.40367759 </v>
    <v>       0.15799850       0.90367759       0.90367759 </v>
    <v>       0.65799850       0.40367759       0.40367759 </v>
    <v>       0.65799850       0.40367759       0.90367759 </v>
    <v>       0.65799850       0.90367759       0.40367759 </v>
    <v>       0.65799850       0.90367759       0.90367759 </v>
    <v>       0.40121687       0.40164095       0.15781832 </v>
    <v>       0.40121687       0.40164095       0.65781832 </v>
    <v>       0.40121687       0.90164095       0.15781832 </v>
    <v>       0.40121687       0.90164095       0.65781832 </v>
    <v>       0.90121687       0.40164095       0.15781832 </v>
    <v>       0.90121687       0.40164095       0.65781832 </v>
    <v>       0.90121687       0.90164095       0.15781832 </v>
    <v>       0.90121687       0.90164095       0.65781832 </v>
    <v>       0.40121687       0.15781832       0.40164095 </v>
    <v>       0.40121687       0.15781832       0.90164095 </v>
    <v>       0.40121687       0.65781832       0.40164095 </v>
    <v>       0.40121687       0.65781832       0.90164095 </v>
    <v>       0.90121687       0.15781832       0.40164095 </v>
    <v>       0.90121687       0.15781832       0.90164095 </v>
    <v>       0.90121687       0.65781832       0.40164095 </v>
    <v>       0.90121687       0.65781832       0.90164095 </v>
    <v>       0.34108542       0.09685333       0.09685333 </v>
    <v>       0.34108542       0.09685333       0.59685333 </v>
    <v>       0.34108542       0.59685333       0.09685333 </v>
    <v>       0.34108542       0.59685333       0.59685333 </v>
    <v>       0.84108542       0.09685333       0.09685333 </v>
    <v>       0.84108542       0.09685333       0.59685333 </v>
    <v>       0.84108542       0.59685333       0.09685333 </v>
    <v>       0.84108542       0.59685333       0.59685333 </v>
    <v>       0.09904819       0.09736590       0.34350999 </v>
    <v>       0.09904819       0.09736590       0.84350999 </v>
    <v>       0.09904819       0.59736590       0.34350999 </v>
    <v>       0.09904819       0.59736590       0.84350999 </v>
    <v>       0.59904819       0.09736590       0.34350999 </v>
    <v>       0.59904819       0.09736590       0.84350999 </v>
    <v>       0.59904819       0.59736590       0.34350999 </v>
    <v>       0.59904819       0.59736590       0.84350999 </v>
    <v>       0.09904819       0.34350999       0.09736590 </v>
    <v>       0.09904819       0.34350999       0.59736590 </v>
    <v>       0.09904819       0.84350999       0.09736590 </v>
    <v>       0.09904819       0.84350999       0.59736590 </v>
    <v>       0.59904819       0.34350999       0.09736590 </v>
    <v>       0.59904819       0.34350999       0.59736590 </v>
    <v>       0.59904819       0.84350999       0.09736590 </v>
    <v>       0.59904819       0.84350999       0.59736590 </v>
    <v>       0.49429913       0.49747136       0.33717457 </v>
    <v>       0.49429913       0.49747136       0.83717457 </v>
    <v>       0.49429913       0.99747136       0.33717457 </v>
    <v>       0.49429913       0.99747136       0.83717457 </v>
    <v>       0.99429913       0.49747136       0.33717457 </v>
    <v>       0.99429913       0.49747136       0.83717457 </v>
    <v>       0.99429913       0.99747136       0.33717457 </v>
    <v>       0.99429913       0.99747136       0.83717457 </v>
    <v>       0.49429913       0.33717457       0.49747136 </v>
    <v>       0.49429913       0.33717457       0.99747136 </v>
    <v>       0.49429913       0.83717457       0.49747136 </v>
    <v>       0.49429913       0.83717457       0.99747136 </v>
    <v>       0.99429913       0.33717457       0.49747136 </v>
    <v>       0.99429913       0.33717457       0.99747136 </v>
    <v>       0.99429913       0.83717457       0.49747136 </v>
    <v>       0.99429913       0.83717457       0.99747136 </v>
    <v>       0.16971119       0.00324624       0.00324624 </v>
    <v>       0.16971119       0.00324624       0.50324624 </v>
    <v>       0.16971119       0.50324624       0.00324624 </v>
    <v>       0.16971119       0.50324624       0.50324624 </v>
    <v>       0.66971119       0.00324624       0.00324624 </v>
    <v>       0.66971119       0.00324624       0.50324624 </v>
    <v>       0.66971119       0.50324624       0.00324624 </v>
    <v>       0.66971119       0.50324624       0.50324624 </v>
    <v>       0.00377388       0.00287670       0.16425910 </v>
    <v>       0.00377388       0.00287670       0.66425910 </v>
    <v>       0.00377388       0.50287670       0.16425910 </v>
    <v>       0.00377388       0.50287670       0.66425910 </v>
    <v>       0.50377388       0.00287670       0.16425910 </v>
    <v>       0.50377388       0.00287670       0.66425910 </v>
    <v>       0.50377388       0.50287670       0.16425910 </v>
    <v>       0.50377388       0.50287670       0.66425910 </v>
    <v>       0.00377388       0.16425910       0.00287670 </v>
    <v>       0.00377388       0.16425910       0.50287670 </v>
    <v>       0.00377388       0.66425910       0.00287670 </v>
    <v>       0.00377388       0.66425910       0.50287670 </v>
    <v>       0.50377388       0.16425910       0.00287670 </v>
    <v>       0.50377388       0.16425910       0.50287670 </v>
    <v>       0.50377388       0.66425910       0.00287670 </v>
    <v>       0.50377388       0.66425910       0.50287670 </v>
    <v>       0.24824971       0.24970705       0.24970705 </v>
    <v>       0.24824971       0.24970705       0.74970705 </v>
    <v>       0.24824971       0.74970705       0.24970705 </v>
    <v>       0.24824971       0.74970705       0.74970705 </v>
    <v>       0.74824971       0.24970705       0.24970705 </v>
    <v>       0.74824971       0.24970705       0.74970705 </v>
    <v>       0.74824971       0.74970705       0.24970705 </v>
    <v>       0.74824971       0.74970705       0.74970705 </v>
    <v>       0.33963634       0.49772928       0.49772928 </v>
    <v>       0.33963634       0.49772928       0.99772928 </v>
    <v>       0.33963634       0.99772928       0.49772928 </v>
    <v>       0.33963634       0.99772928       0.99772928 </v>
    <v>       0.83963634       0.49772928       0.49772928 </v>
    <v>       0.83963634       0.49772928       0.99772928 </v>
    <v>       0.83963634       0.99772928       0.49772928 </v>
    <v>       0.83963634       0.99772928       0.99772928 </v>
    <v>       0.30562434       0.30915354       0.30915354 </v>
    <v>       0.30562434       0.30915354       0.80915354 </v>
    <v>       0.30562434       0.80915354       0.30915354 </v>
    <v>       0.30562434       0.80915354       0.80915354 </v>
    <v>       0.80562434       0.30915354       0.30915354 </v>
    <v>       0.80562434       0.30915354       0.80915354 </v>
    <v>       0.80562434       0.80915354       0.30915354 </v>
    <v>       0.80562434       0.80915354       0.80915354 </v>
    <v>       0.19101835       0.18751709       0.18751709 </v>
    <v>       0.19101835       0.18751709       0.68751709 </v>
    <v>       0.19101835       0.68751709       0.18751709 </v>
    <v>       0.19101835       0.68751709       0.68751709 </v>
    <v>       0.69101835       0.18751709       0.18751709 </v>
    <v>       0.69101835       0.18751709       0.68751709 </v>
    <v>       0.69101835       0.68751709       0.18751709 </v>
    <v>       0.69101835       0.68751709       0.68751709 </v>
   </varray>
  </structure>
  <varray name="forces" >
   <v>      -0.06650086       0.07843813       0.08602699 </v>
   <v>      -0.06650086       0.07843813       0.08602699 </v>
   <v>      -0.06650086       0.07843813       0.08602699 </v>
   <v>      -0.06650086       0.07843813       0.08602699 </v>
   <v>      -0.06650086       0.07843813       0.08602699 </v>
   <v>      -0.06650086       0.07843813       0.08602699 </v>
   <v>      -0.06650086       0.07843813       0.08602699 </v>
   <v>      -0.06650086       0.07843813       0.08602699 </v>
   <v>       0.15199922       0.08680576      -0.08045309 </v>
   <v>       0.15199922       0.08680576      -0.08045309 </v>
   <v>       0.15199922       0.08680576      -0.08045309 </v>
   <v>       0.15199922       0.08680576      -0.08045309 </v>
   <v>       0.15199922       0.08680576      -0.08045309 </v>
   <v>       0.15199922       0.08680576      -0.08045309 </v>
   <v>       0.15199922       0.08680576      -0.08045309 </v>
   <v>       0.15199922       0.08680576      -0.08045309 </v>
   <v>       0.07902028      -0.15468026       0.08331579 </v>
   <v>       0.07902028      -0.15468026       0.08331579 </v>
   <v>       0.07902028      -0.15468026       0.08331579 </v>
   <v>       0.07902028      -0.15468026       0.08331579 </v>
   <v>       0.07902028      -0.15468026       0.08331579 </v>
   <v>       0.07902028      -0.15468026       0.08331579 </v>
   <v>       0.07902028      -0.15468026       0.08331579 </v>
   <v>       0.07902028      -0.15468026       0.08331579 </v>
   <v>       0.13399739      -0.14683649      -0.15680611 </v>
   <v>       0.13399739      -0.14683649      -0.15680611 </v>
   <v>       0.13399739      -0.14683649      -0.15680611 </v>
   <v>       0.13399739      -0.14683649      -0.15680611 </v>
   <v>       0.13399739      -0.14683649      -0.15680611 </v>
   <v>       0.13399739      -0.14683649      -0.15680611 </v>
   <v>       0.13399739      -0.14683649      -0.15680611 </v>
   <v>       0.13399739      -0.14683649      -0.15680611 </v>
   <v>      -0.03923196      -0.01877447      -0.04939272 </v>
   <v>      -0.03923196      -0.01877447      -0.04939272 </v>
   <v>      -0.03923196      -0.01877447      -0.04939272 </v>
   <v>      -0.03923196      -0.01877447      -0.04939272 </v>
   <v>      -0.03923196      -0.01877447      -0.04939272 </v>
   <v>      -0.03923196      -0.01877447      -0.04939272 </v>
   <v>      -0.03923196      -0.01877447      -0.04939272 </v>
   <v>      -0.03923196      -0.01877447      -0.04939272 </v>
   <v>      -0.04034866      -0.02246964      -0.04688677 </v>
   <v>      -0.04034866      -0.02246964      -0.04688677 </v>
   <v>      -0.04034866      -0.02246964      -0.04688677 </v>
   <v>      -0.04034866      -0.02246964      -0.04688677 </v>
   <v>      -0.04034866      -0.02246964      -0.04688677 </v>
   <v>      -0.04034866      -0.02246964      -0.04688677 </v>
   <v>      -0.04034866      -0.02246964      -0.04688677 </v>
   <v>      -0.04034866      -0.02246964      -0.04688677 </v>
   <v>       0.03048060       0.06766677       0.01244740 </v>
   <v>       0.03048060       0.06766677       0.01244740 </v>
   <v>       0.03048060       0.06766677       0.01244740 </v>
   <v>       0.03048060       0.06766677       0.01244740 </v>
   <v>       0.03048060       0.06766677       0.01244740 </v>
   <v>       0.03048060       0.06766677       0.01244740 </v>
   <v>       0.03048060       0.06766677       0.01244740 </v>
   <v>       0.03048060       0.06766677       0.01244740 </v>
   <v>       0.00381542      -0.02056783       0.07228556 </v>
   <v>       0.00381542      -0.02056783       0.07228556 </v>
   <v>       0.00381542      -0.02056783       0.07228556 </v>
   <v>       0.00381542      -0.02056783       0.07228556 </v>
   <v>       0.00381542      -0.02056783       0.07228556 </v>
   <v>       0.00381542      -0.02056783       0.07228556 </v>
   <v>       0.00381542      -0.02056783       0.07228556 </v>
   <v>       0.00381542      -0.02056783       0.07228556 </v>
   <v>       0.23428636      -0.02019849       0.07461930 </v>
   <v>       0.23428636      -0.02019849       0.07461930 </v>
   <v>       0.23428636      -0.02019849       0.07461930 </v>
   <v>       0.23428636      -0.02019849       0.07461930 </v>
   <v>       0.23428636      -0.02019849       0.07461930 </v>
   <v>       0.23428636      -0.02019849       0.07461930 </v>
   <v>       0.23428636      -0.02019849       0.07461930 </v>
   <v>       0.23428636      -0.02019849       0.07461930 </v>
   <v>      -0.05004640      -0.05969323       0.07401132 </v>
   <v>      -0.05004640      -0.05969323       0.07401132 </v>
   <v>      -0.05004640      -0.05969323       0.07401132 </v>
   <v>      -0.05004640      -0.05969323       0.07401132 </v>
   <v>      -0.05004640      -0.05969323       0.07401132 </v>
   <v>      -0.05004640      -0.05969323       0.07401132 </v>
   <v>      -0.05004640      -0.05969323       0.07401132 </v>
   <v>      -0.05004640      -0.05969323       0.07401132 </v>
   <v>      -0.00133847       0.10148045      -0.03529204 </v>
   <v>      -0.00133847       0.10148045      -0.03529204 </v>
   <v>      -0.00133847       0.10148045      -0.03529204 </v>
   <v>      -0.00133847       0.10148045      -0.03529204 </v>
   <v>      -0.00133847       0.10148045      -0.03529204 </v>
   <v>      -0.00133847       0.10148045      -0.03529204 </v>
   <v>      -0.00133847       0.10148045      -0.03529204 </v>
   <v>      -0.00133847       0.10148045      -0.03529204 </v>
   <v>      -0.76540213      -0.62437545      -1.26175465 </v>
   <v>      -0.76540213      -0.62437545      -1.26175465 </v>
   <v>      -0.76540213      -0.62437545      -1.26175465 </v>
   <v>      -0.76540213      -0.62437545      -1.26175465 </v>
   <v>      -0.76540213      -0.62437545      -1.26175465 </v>
   <v>      -0.76540213      -0.62437545      -1.26175465 </v>
   <v>      -0.76540213      -0.62437545      -1.26175465 </v>
   <v>      -0.76540213      -0.62437545      -1.26175465 </v>
   <v>      -0.22099368       0.01066422      -0.08275459 </v>
   <v>      -0.22099368       0.01066422      -0.08275459 </v>
   <v>      -0.22099368       0.01066422      -0.08275459 </v>
   <v>      -0.22099368       0.01066422      -0.08275459 </v>
   <v>      -0.22099368       0.01066422      -0.08275459 </v>
   <v>      -0.22099368       0.01066422      -0.08275459 </v>
   <v>      -0.22099368       0.01066422      -0.08275459 </v>
   <v>      -0.22099368       0.01066422      -0.08275459 </v>
   <v>       0.13175491       0.30955640       0.51517027 </v>
   <v>       0.13175491       0.30955640       0.51517027 </v>
   <v>       0.13175491       0.30955640       0.51517027 </v>
   <v>       0.13175491       0.30955640       0.51517027 </v>
   <v>       0.13175491       0.30955640       0.51517027 </v>
   <v>       0.13175491       0.30955640       0.51517027 </v>
   <v>       0.13175491       0.30955640       0.51517027 </v>
   <v>       0.13175491       0.30955640       0.51517027 </v>
   <v>       0.41850797       0.41298412       0.79546333 </v>
   <v>       0.41850797       0.41298412       0.79546333 </v>
   <v>       0.41850797       0.41298412       0.79546333 </v>
   <v>       0.41850797       0.41298412       0.79546333 </v>
   <v>       0.41850797       0.41298412       0.79546333 </v>
   <v>       0.41850797       0.41298412       0.79546333 </v>
   <v>       0.41850797       0.41298412       0.79546333 </v>
   <v>       0.41850797       0.41298412       0.79546333 </v>
  </varray>
  <varray name="stress" >
   <v>      -3.12587866      -3.92420841      -5.20004943 </v>
   <v>      -3.92420846      -3.91271592      -0.96853783 </v>
   <v>      -5.20004950      -0.96853781      -8.18722151 </v>
  </varray>
  <energy>
   <i name="e_fr_energy">   -877.16920606 </i>
   <i name="e_wo_entrp">   -877.16920606 </i>
   <i name="e_0_energy">   -877.16920606 </i>
  </energy>
  <time name="totalsc">   81.43   81.06</time>
 </calculation>
 <calculation>
  <scstep>
   <time name="dav">    5.18    5.18</time>
   <time name="total">    7.08    7.08</time>
   <energy>
    <i name="alphaZ">   1184.40993130 </i>
    <i name="ewald"> -11622.64959750 </i>
    <i name="hartreedc">  -1526.64380517 </i>
    <i name="XCdc">   1049.21412998 </i>
    <i name="pawpsdc">  35831.20910393 </i>
    <i name="pawaedc"> -35773.18841395 </i>
    <i name="eentropy">      0.00000000 </i>
    <i name="bandstr">   -383.66164396 </i>
    <i name="atom">  10363.97701633 </i>
    <i name="e_fr_energy">   -877.33327904 </i>
    <i name="e_wo_entrp">   -877.33327904 </i>
    <i name="e_0_energy">   -877.33327904 </i>
   </energy>
  </scstep>
  <scstep>
   <time name="diag">    1.08    1.08</time>
   <time name="diis">    4.52    4.47</time>
   <time name="orth">    0.03    0.03</time>
   <time name="total">    7.53    7.49</time>
   <energy>
    <i name="e_fr_energy">   -877.33192415 </i>
    <i name="e_wo_entrp">   -877.33192415 </i>
    <i name="e_0_energy">   -877.33192415 </i>
   </energy>
  </scstep>
  <scstep>
   <time name="diag">    1.07    1.07</time>
   <time name="diis">    4.53    4.47</time>
   <time name="orth">    0.03    0.03</time>
   <time name="total">    7.54    7.49</time>
   <energy>
    <i name="e_fr_energy">   -877.32563731 </i>
    <i name="e_wo_entrp">   -877.32563731 </i>
    <i name="e_0_energy">   -877.32563731 </i>
   </energy>
  </scstep>
  <scstep>
   <time name="diag">    1.08    1.08</time>
   <time name="diis">    4.59    4.55</time>
   <time name="orth">    0.03    0.03</time>
   <time name="total">    7.61    7.56</time>
   <energy>
    <i name="e_fr_energy">   -877.32602355 </i>
    <i name="e_wo_entrp">   -877.32602355 </i>
    <i name="e_0_energy">   -877.32602355 </i>
   </energy>
  </scstep>
  <scstep>
   <time name="diag">    1.07    1.07</time>
   <time name="diis">    4.52    4.48</time>
   <time name="orth">    0.03    0.03</time>
   <time name="total">    7.52    7.49</time>
   <energy>
    <i name="e_fr_energy">   -877.32608245 </i>
    <i name="e_wo_entrp">   -877.32608245 </i>
    <i name="e_0_energy">   -877.32608245 </i>
   </energy>
  </scstep>
  <scstep>
   <time name="diag">    1.08    1.08</time>
   <time name="diis">    4.71    4.67</time>
   <time name="orth">    0.03    0.03</time>
   <time name="total">    7.74    7.71</time>
   <energy>
    <i name="e_fr_energy">   -877.32610454 </i>
    <i name="e_wo_entrp">   -877.32610454 </i>
    <i name="e_0_energy">   -877.32610454 </i>
   </energy>
  </scstep>
  <scstep>
[...]
       <r>    -6.7810    27.3019    52.6879 </r>
       <r>    -6.6939    22.6418    54.8569 </r>
       <r>    -6.6069     3.5452    55.9035 </r>
       <r>    -6.5199    11.1525    56.6573 </r>
       <r>    -6.4329    13.8483    57.7362 </r>
       <r>    -6.3459    17.3870    59.0948 </r>
       <r>    -6.2589    20.5665    60.7550 </r>
       <r>    -6.1719    14.8397    62.3684 </r>
       <r>    -6.0849    10.1384    63.3951 </r>
       <r>    -5.9978     1.8252    63.9718 </r>
       <r>    -5.9108     0.0000    64.0000 </r>
       <r>    -5.8238     7.4633    64.2143 </r>
       <r>    -5.7368    28.9290    65.7397 </r>
       <r>    -5.6498    14.9665    67.6662 </r>
       <r>    -5.5628    11.2409    68.6942 </r>
       <r>    -5.4758    29.0096    70.3172 </r>
       <r>    -5.3887    52.2294    74.3998 </r>
       <r>    -5.3017     8.7554    76.0365 </r>
       <r>    -5.2147    22.1421    77.5534 </r>
       <r>    -5.1277    34.7260    80.0066 </r>
       <r>    -5.0407    27.0665    83.0160 </r>
       <r>    -4.9537    11.3482    84.3615 </r>
       <r>    -4.8667    29.8274    86.9212 </r>
       <r>    -4.7796    10.4189    88.0496 </r>
       <r>    -4.6926    15.3800    89.2150 </r>
       <r>    -4.6056    15.5337    90.5335 </r>
       <r>    -4.5186    21.9485    92.1159 </r>
       <r>    -4.4316    17.9927    94.1548 </r>
       <r>    -4.3446     7.4945    95.0701 </r>
       <r>    -4.2576     4.2548    95.5630 </r>
       <r>    -4.1706     2.1911    95.8385 </r>
       <r>    -4.0835     0.8059    95.9640 </r>
       <r>    -3.9965     0.0994    95.9984 </r>
       <r>    -3.9095     0.0000    96.0000 </r>
       <r>    -3.8225     0.0384    96.0001 </r>
       <r>    -3.7355     5.7570    96.1561 </r>
       <r>    -3.6485     7.9256    96.7239 </r>
       <r>    -3.5615    11.5927    97.5691 </r>
       <r>    -3.4744    12.7764    98.6659 </r>
       <r>    -3.3874    13.3945    99.7966 </r>
       <r>    -3.3004    15.1496   101.0302 </r>
       <r>    -3.2134    18.0553   102.4665 </r>
       <r>    -3.1264    22.9747   104.2143 </r>
       <r>    -3.0394    21.0533   106.4939 </r>
       <r>    -2.9524    23.7566   108.3044 </r>
       <r>    -2.8654    12.0742   109.6566 </r>
       <r>    -2.7783    30.3920   111.7637 </r>
       <r>    -2.6913    30.3389   113.9048 </r>
       <r>    -2.6043    16.6390   116.0053 </r>
       <r>    -2.5173    23.6726   117.6397 </r>
       <r>    -2.4303    21.1219   119.9757 </r>
       <r>    -2.3433    19.1781   121.0140 </r>
       <r>    -2.2563    29.1081   123.5145 </r>
       <r>    -2.1692    24.6936   125.5818 </r>
       <r>    -2.0822    33.1685   128.6657 </r>
       <r>    -1.9952    27.2082   131.3163 </r>
       <r>    -1.9082    28.6416   133.5505 </r>
       <r>    -1.8212    47.3218   136.8086 </r>
       <r>    -1.7342    47.6698   141.1019 </r>
       <r>    -1.6472    31.9446   144.6247 </r>
       <r>    -1.5602    25.6598   146.9940 </r>
       <r>    -1.4731    23.9678   149.1672 </r>
       <r>    -1.3861    14.5946   150.9196 </r>
       <r>    -1.2991     5.6698   151.7761 </r>
       <r>    -1.2121    32.8325   154.7480 </r>
       <r>    -1.1251    43.6000   157.5107 </r>
       <r>    -1.0381    45.1220   162.1202 </r>
       <r>    -0.9511    27.2386   165.1650 </r>
       <r>    -0.8640    20.4474   167.0190 </r>
       <r>    -0.7770    28.8793   169.1165 </r>
       <r>    -0.6900    48.6952   173.0576 </r>
       <r>    -0.6030    24.5400   175.8060 </r>
       <r>    -0.5160    23.8942   177.8778 </r>
       <r>    -0.4290    26.9929   180.0737 </r>
       <r>    -0.3420    26.9954   182.5098 </r>
       <r>    -0.2550    20.2571   184.5776 </r>
       <r>    -0.1679    40.1081   186.6479 </r>
       <r>    -0.0809    11.7928   188.3619 </r>
       <r>     0.0061    58.3300   191.2103 </r>
       <r>     0.0931    58.4559   197.2885 </r>
       <r>     0.1801    21.2290   200.2370 </r>
       <r>     0.2671    37.6001   202.3937 </r>
       <r>     0.3541    20.7668   205.4356 </r>
       <r>     0.4412    34.3274   207.8183 </r>
       <r>     0.5282    32.0689   210.7798 </r>
       <r>     0.6152    22.3219   213.1713 </r>
       <r>     0.7022    25.9058   215.2356 </r>
       <r>     0.7892    29.8274   217.6519 </r>
       <r>     0.8762    45.5277   220.6739 </r>
       <r>     0.9632    43.3134   225.1942 </r>
       <r>     1.0503    44.5540   229.0938 </r>
       <r>     1.1373    46.1422   233.0204 </r>
       <r>     1.2243    22.4156   236.4034 </r>
       <r>     1.3113    19.9618   237.9639 </r>
       <r>     1.3983    37.9971   240.8112 </r>
       <r>     1.4853    34.3627   243.6058 </r>
       <r>     1.5723    51.7284   247.0469 </r>
       <r>     1.6593    39.4783   251.4933 </r>
       <r>     1.7464    23.9380   254.0634 </r>
       <r>     1.8334    34.0616   256.7301 </r>
       <r>     1.9204    50.6271   261.9429 </r>
       <r>     2.0074    48.4262   267.1387 </r>
       <r>     2.0944    33.5500   270.5075 </r>
       <r>     2.1814    29.5983   274.5612 </r>
       <r>     2.2684    36.1782   276.6543 </r>
       <r>     2.3555    78.5423   280.3365 </r>
       <r>     2.4425    52.4305   286.0175 </r>
       <r>     2.5295    35.8111   290.0306 </r>
       <r>     2.6165    48.8127   294.2215 </r>
       <r>     2.7035    65.2949   298.0743 </r>
       <r>     2.7905    22.2950   302.1175 </r>
       <r>     2.8775    49.2360   304.8026 </r>
       <r>     2.9645    62.3615   309.9299 </r>
       <r>     3.0516    39.8629   314.9943 </r>
       <r>     3.1386    59.9938   318.8293 </r>
       <r>     3.2256    46.1911   323.7760 </r>
       <r>     3.3126    37.3766   326.9997 </r>
       <r>     3.3996    28.5933   329.8576 </r>
       <r>     3.4866    32.7190   332.4406 </r>
       <r>     3.5736    42.0819   335.3374 </r>
       <r>     3.6607    58.3315   340.1526 </r>
       <r>     3.7477    58.0356   345.1505 </r>
       <r>     3.8347    38.8624   348.9686 </r>
       <r>     3.9217    21.5962   351.3279 </r>
       <r>     4.0087    71.5870   356.0561 </r>
       <r>     4.0957    64.7636   363.4068 </r>
       <r>     4.1827    31.8965   365.7268 </r>
       <r>     4.2697    32.5904   368.2521 </r>
       <r>     4.3568    41.2180   371.5214 </r>
       <r>     4.4438    41.2903   375.2535 </r>
       <r>     4.5308    30.7213   378.4733 </r>
       <r>     4.6178    25.4597   380.9301 </r>
       <r>     4.7048    14.7134   382.7164 </r>
       <r>     4.7918     6.2830   383.5702 </r>
       <r>     4.8788     1.5594   383.8996 </r>
       <r>     4.9659     0.4800   383.9819 </r>
       <r>     5.0529     0.0254   383.9998 </r>
       <r>     5.1399     0.0000   384.0000 </r>
       <r>     5.2269     0.0000   384.0000 </r>
       <r>     5.3139     0.0000   384.0000 </r>
       <r>     5.4009     0.0000   384.0000 </r>
       <r>     5.4879     0.0000   384.0000 </r>
       <r>     5.5750     0.0000   384.0000 </r>
       <r>     5.6620     0.0000   384.0000 </r>
       <r>     5.7490     0.0000   384.0000 </r>
       <r>     5.8360     0.0000   384.0000 </r>
       <r>     5.9230     0.0000   384.0000 </r>
       <r>     6.0100     0.0000   384.0000 </r>
       <r>     6.0970     0.0000   384.0000 </r>
       <r>     6.1840     0.0000   384.0000 </r>
       <r>     6.2711     0.0000   384.0000 </r>
       <r>     6.3581     0.0000   384.0000 </r>
       <r>     6.4451     0.0000   384.0000 </r>
       <r>     6.5321     0.0000   384.0000 </r>
       <r>     6.6191     0.0000   384.0000 </r>
       <r>     6.7061     0.0000   384.0000 </r>
       <r>     6.7931     0.0000   384.0000 </r>
       <r>     6.8802     0.0000   384.0000 </r>
       <r>     6.9672     0.0000   384.0000 </r>
       <r>     7.0542     0.0000   384.0000 </r>
       <r>     7.1412     0.0000   384.0000 </r>
       <r>     7.2282     0.0000   384.0000 </r>
       <r>     7.3152     0.0000   384.0000 </r>
       <r>     7.4022     0.0000   384.0000 </r>
       <r>     7.4892     0.0000   384.0000 </r>
       <r>     7.5763     0.0000   384.0000 </r>
       <r>     7.6633     0.0000   384.0000 </r>
       <r>     7.7503     0.0000   384.0000 </r>
       <r>     7.8373     0.0000   384.0000 </r>
       <r>     7.9243     0.0000   384.0000 </r>
       <r>     8.0113     0.0869   384.0010 </r>
       <r>     8.0983     2.1022   384.0740 </r>
       <r>     8.1854     7.1941   384.4561 </r>
       <r>     8.2724    24.9129   385.5684 </r>
       <r>     8.3594    29.1304   388.3141 </r>
       <r>     8.4464    44.0111   390.7955 </r>
       <r>     8.5334    22.1553   393.7075 </r>
       <r>     8.6204    20.7595   395.5332 </r>
       <r>     8.7074    17.0601   397.2109 </r>
       <r>     8.7944    24.7033   399.0096 </r>
       <r>     8.8815    29.4265   401.5937 </r>
       <r>     8.9685    31.5569   404.2093 </r>
       <r>     9.0555    30.3055   406.7941 </r>
       <r>     9.1425    30.2432   409.5652 </r>
       <r>     9.2295    26.1588   411.9571 </r>
       <r>     9.3165    30.5428   414.4334 </r>
       <r>     9.4035    28.3435   417.0110 </r>
       <r>     9.4906    32.8822   419.4865 </r>
       <r>     9.5776    46.0958   423.0398 </r>
       <r>     9.6646    20.3317   426.2946 </r>
       <r>     9.7516    65.6539   428.3729 </r>
       <r>     9.8386    35.6635   432.1450 </r>
       <r>     9.9256    30.4902   434.8740 </r>
       <r>    10.0126    14.9115   436.8560 </r>
       <r>    10.0996    28.3958   439.1020 </r>
       <r>    10.1867    30.1330   441.7382 </r>
       <r>    10.2737    24.9527   443.9522 </r>
       <r>    10.3607    37.6814   446.5391 </r>
       <r>    10.4477    25.2794   449.5902 </r>
       <r>    10.5347    17.1931   451.3119 </r>
       <r>    10.6217    18.3199   452.9272 </r>
       <r>    10.7087    24.5747   454.7491 </r>
       <r>    10.7958    26.6538   457.1835 </r>
       <r>    10.8828    21.4170   459.2338 </r>
       <r>    10.9698    20.4063   461.0784 </r>
       <r>    11.0568    26.1101   462.9553 </r>
       <r>    11.1438    28.0668   465.3558 </r>
       <r>    11.2308    27.6707   467.7942 </r>
       <r>    11.3178    24.8689   470.1022 </r>
       <r>    11.4049    20.9232   472.0475 </r>
       <r>    11.4919    19.9829   473.8211 </r>
       <r>    11.5789    22.5960   475.6452 </r>
       <r>    11.6659    27.1546   477.8325 </r>
       <r>    11.7529    27.1774   480.2193 </r>
       <r>    11.8399    22.8874   482.4770 </r>
       <r>    11.9269    17.9874   484.2181 </r>
       <r>    12.0139    27.3724   485.9415 </r>
       <r>    12.1010    57.2839   488.5327 </r>
       <r>    12.1880    46.4481   492.6663 </r>
       <r>    12.2750    13.0082   495.0137 </r>
       <r>    12.3620    18.2195   496.1461 </r>
       <r>    12.4490    42.8572   499.5608 </r>
       <r>    12.5360    29.2978   502.1071 </r>
       <r>    12.6230     3.8308   504.0000 </r>
       <r>    12.7101    43.1453   505.4330 </r>
       <r>    12.7971     0.0000   506.0000 </r>
       <r>    12.8841     0.0000   506.0000 </r>
       <r>    12.9711     0.0000   506.0000 </r>
       <r>    13.0581     0.0000   506.0000 </r>
       <r>    13.1451     0.0000   506.0000 </r>
       <r>    13.2321     0.0000   506.0000 </r>
       <r>    13.3191     0.0000   506.0000 </r>
       <r>    13.4062     0.0000   506.0000 </r>
       <r>    13.4932     0.0000   506.0000 </r>
       <r>    13.5802     0.0000   506.0000 </r>
       <r>    13.6672     0.0000   506.0000 </r>
       <r>    13.7542     0.0000   506.0000 </r>
       <r>    13.8412     0.0000   506.0000 </r>
       <r>    13.9282     0.0000   506.0000 </r>
      </set>
     </set>
    </array>
   </total>
  </dos>
 </calculation>
 <structure name="finalpos" >
  <crystal>
   <varray name="basis" >
    <v>       9.21700430       0.04764813       4.17755581 </v>
    <v>       2.64930460       9.11026371       4.31267889 </v>
    <v>      -0.07273169       0.10309255      10.42108337 </v>
   </varray>
   <i name="volume">    873.53217688 </i>
   <varray name="rec_basis" >
    <v>       0.10817485      -0.03196481       0.00107120 </v>
    <v>      -0.00007541       0.11030505      -0.00109174 </v>
    <v>      -0.04333343      -0.03283492       0.09598170 </v>
   </varray>
  </crystal>
  <varray name="positions" >
   <v>       0.15766261       0.40435075       0.40435075 </v>
   <v>       0.15766261       0.40435075       0.90435075 </v>
   <v>       0.15766261       0.90435075       0.40435075 </v>
   <v>       0.15766261       0.90435075       0.90435075 </v>
   <v>       0.65766261       0.40435075       0.40435075 </v>
   <v>       0.65766261       0.40435075       0.90435075 </v>
   <v>       0.65766261       0.90435075       0.40435075 </v>
   <v>       0.65766261       0.90435075       0.90435075 </v>
   <v>       0.40136657       0.40134051       0.15794034 </v>
   <v>       0.40136657       0.40134051       0.65794034 </v>
   <v>       0.40136657       0.90134051       0.15794034 </v>
   <v>       0.40136657       0.90134051       0.65794034 </v>
   <v>       0.90136657       0.40134051       0.15794034 </v>
   <v>       0.90136657       0.40134051       0.65794034 </v>
   <v>       0.90136657       0.90134051       0.15794034 </v>
   <v>       0.90136657       0.90134051       0.65794034 </v>
   <v>       0.40136657       0.15794034       0.40134051 </v>
   <v>       0.40136657       0.15794034       0.90134051 </v>
   <v>       0.40136657       0.65794034       0.40134051 </v>
   <v>       0.40136657       0.65794034       0.90134051 </v>
   <v>       0.90136657       0.15794034       0.40134051 </v>
   <v>       0.90136657       0.15794034       0.90134051 </v>
   <v>       0.90136657       0.65794034       0.40134051 </v>
   <v>       0.90136657       0.65794034       0.90134051 </v>
   <v>       0.34216608       0.09592095       0.09592095 </v>
   <v>       0.34216608       0.09592095       0.59592095 </v>
   <v>       0.34216608       0.59592095       0.09592095 </v>
   <v>       0.34216608       0.59592095       0.59592095 </v>
   <v>       0.84216608       0.09592095       0.09592095 </v>
   <v>       0.84216608       0.09592095       0.59592095 </v>
   <v>       0.84216608       0.59592095       0.09592095 </v>
   <v>       0.84216608       0.59592095       0.59592095 </v>
   <v>       0.09916297       0.09768470       0.34343310 </v>
   <v>       0.09916297       0.09768470       0.84343310 </v>
   <v>       0.09916297       0.59768470       0.34343310 </v>
   <v>       0.09916297       0.59768470       0.84343310 </v>
   <v>       0.59916297       0.09768470       0.34343310 </v>
   <v>       0.59916297       0.09768470       0.84343310 </v>
   <v>       0.59916297       0.59768470       0.34343310 </v>
   <v>       0.59916297       0.59768470       0.84343310 </v>
   <v>       0.09916297       0.34343310       0.09768470 </v>
   <v>       0.09916297       0.34343310       0.59768470 </v>
   <v>       0.09916297       0.84343310       0.09768470 </v>
   <v>       0.09916297       0.84343310       0.59768470 </v>
   <v>       0.59916297       0.34343310       0.09768470 </v>
   <v>       0.59916297       0.34343310       0.59768470 </v>
   <v>       0.59916297       0.84343310       0.09768470 </v>
   <v>       0.59916297       0.84343310       0.59768470 </v>
   <v>       0.49410550       0.49818582       0.33724788 </v>
   <v>       0.49410550       0.49818582       0.83724788 </v>
   <v>       0.49410550       0.99818582       0.33724788 </v>
   <v>       0.49410550       0.99818582       0.83724788 </v>
   <v>       0.99410550       0.49818582       0.33724788 </v>
   <v>       0.99410550       0.49818582       0.83724788 </v>
   <v>       0.99410550       0.99818582       0.33724788 </v>
   <v>       0.99410550       0.99818582       0.83724788 </v>
   <v>       0.49410550       0.33724788       0.49818582 </v>
   <v>       0.49410550       0.33724788       0.99818582 </v>
   <v>       0.49410550       0.83724788       0.49818582 </v>
   <v>       0.49410550       0.83724788       0.99818582 </v>
   <v>       0.99410550       0.33724788       0.49818582 </v>
   <v>       0.99410550       0.33724788       0.99818582 </v>
   <v>       0.99410550       0.83724788       0.49818582 </v>
   <v>       0.99410550       0.83724788       0.99818582 </v>
   <v>       0.17057088       0.00333372       0.00333372 </v>
   <v>       0.17057088       0.00333372       0.50333372 </v>
   <v>       0.17057088       0.50333372       0.00333372 </v>
   <v>       0.17057088       0.50333372       0.50333372 </v>
   <v>       0.67057088       0.00333372       0.00333372 </v>
   <v>       0.67057088       0.00333372       0.50333372 </v>
   <v>       0.67057088       0.50333372       0.00333372 </v>
   <v>       0.67057088       0.50333372       0.50333372 </v>
   <v>       0.00419932       0.00231394       0.16471804 </v>
   <v>       0.00419932       0.00231394       0.66471804 </v>
   <v>       0.00419932       0.50231394       0.16471804 </v>
   <v>       0.00419932       0.50231394       0.66471804 </v>
   <v>       0.50419932       0.00231394       0.16471804 </v>
   <v>       0.50419932       0.00231394       0.66471804 </v>
   <v>       0.50419932       0.50231394       0.16471804 </v>
   <v>       0.50419932       0.50231394       0.66471804 </v>
   <v>       0.00419932       0.16471804       0.00231394 </v>
   <v>       0.00419932       0.16471804       0.50231394 </v>
   <v>       0.00419932       0.66471804       0.00231394 </v>
   <v>       0.00419932       0.66471804       0.50231394 </v>
   <v>       0.50419932       0.16471804       0.00231394 </v>
   <v>       0.50419932       0.16471804       0.50231394 </v>
   <v>       0.50419932       0.66471804       0.00231394 </v>
   <v>       0.50419932       0.66471804       0.50231394 </v>
   <v>       0.24629006       0.24904584       0.24904584 </v>
   <v>       0.24629006       0.24904584       0.74904584 </v>
   <v>       0.24629006       0.74904584       0.24904584 </v>
   <v>       0.24629006       0.74904584       0.74904584 </v>
   <v>       0.74629006       0.24904584       0.24904584 </v>
   <v>       0.74629006       0.24904584       0.74904584 </v>
   <v>       0.74629006       0.74904584       0.24904584 </v>
   <v>       0.74629006       0.74904584       0.74904584 </v>
   <v>       0.33933821       0.49772434       0.49772434 </v>
   <v>       0.33933821       0.49772434       0.99772434 </v>
   <v>       0.33933821       0.99772434       0.49772434 </v>
   <v>       0.33933821       0.99772434       0.99772434 </v>
   <v>       0.83933821       0.49772434       0.49772434 </v>
   <v>       0.83933821       0.49772434       0.99772434 </v>
   <v>       0.83933821       0.99772434       0.49772434 </v>
   <v>       0.83933821       0.99772434       0.99772434 </v>
   <v>       0.30382462       0.30972056       0.30972056 </v>
   <v>       0.30382462       0.30972056       0.80972056 </v>
   <v>       0.30382462       0.80972056       0.30972056 </v>
   <v>       0.30382462       0.80972056       0.80972056 </v>
   <v>       0.80382462       0.30972056       0.30972056 </v>
   <v>       0.80382462       0.30972056       0.80972056 </v>
   <v>       0.80382462       0.80972056       0.30972056 </v>
   <v>       0.80382462       0.80972056       0.80972056 </v>
   <v>       0.19247881       0.18704052       0.18704052 </v>
   <v>       0.19247881       0.18704052       0.68704052 </v>
   <v>       0.19247881       0.68704052       0.18704052 </v>
   <v>       0.19247881       0.68704052       0.68704052 </v>
   <v>       0.69247881       0.18704052       0.18704052 </v>
   <v>       0.69247881       0.18704052       0.68704052 </v>
   <v>       0.69247881       0.68704052       0.18704052 </v>
   <v>       0.69247881       0.68704052       0.68704052 </v>
  </varray>
 </structure>
</modeling>
