unknown system                          
            1
     9.239087    0.050189    4.191143
     2.676747    9.099570    4.285847
    -0.051444    0.072033   10.408063
   B    C 
    96    24
unknown system                          
            1
     9.239087    0.050189    4.191143
     2.676747    9.099570    4.285847
    -0.051444    0.072033   10.408063
   B    C 
    96    24
Direct configuration=     1
   0.15792300  0.40375800  0.40375800
   0.15792300  0.40375800  0.90375800
   0.15792300  0.90375800  0.40375800
   0.15792300  0.90375800  0.90375800
   0.65792300  0.40375800  0.40375800
   0.65792300  0.40375800  0.90375800
   0.65792300  0.90375800  0.40375800
   0.65792300  0.90375800  0.90375800
   0.40163200  0.40233800  0.15722000
   0.40163200  0.40233800  0.65722000
   0.40163200  0.90233800  0.15722000
   0.40163200  0.90233800  0.65722000
   0.90163200  0.40233800  0.15722000
   0.90163200  0.40233800  0.65722000
   0.90163200  0.90233800  0.15722000
   0.90163200  0.90233800  0.65722000
   0.40163200  0.15722000  0.40233800
   0.40163200  0.15722000  0.90233800
   0.40163200  0.65722000  0.40233800
   0.40163200  0.65722000  0.90233800
   0.90163200  0.15722000  0.40233800
   0.90163200  0.15722000  0.90233800
   0.90163200  0.65722000  0.40233800
   0.90163200  0.65722000  0.90233800
   0.34136600  0.09666500  0.09666500
   0.34136600  0.09666500  0.59666500
   0.34136600  0.59666500  0.09666500
   0.34136600  0.59666500  0.59666500
   0.84136600  0.09666500  0.09666500
   0.84136600  0.09666500  0.59666500
   0.84136600  0.59666500  0.09666500
   0.84136600  0.59666500  0.59666500
   0.09870000  0.09683600  0.34371100
   0.09870000  0.09683600  0.84371100
   0.09870000  0.59683600  0.34371100
   0.09870000  0.59683600  0.84371100
   0.59870000  0.09683600  0.34371100
   0.59870000  0.09683600  0.84371100
   0.59870000  0.59683600  0.34371100
   0.59870000  0.59683600  0.84371100
   0.09870000  0.34371100  0.09683600
   0.09870000  0.34371100  0.59683600
   0.09870000  0.84371100  0.09683600
   0.09870000  0.84371100  0.59683600
   0.59870000  0.34371100  0.09683600
   0.59870000  0.34371100  0.59683600
   0.59870000  0.84371100  0.09683600
   0.59870000  0.84371100  0.59683600
   0.49444700  0.49739900  0.33679800
   0.49444700  0.49739900  0.83679800
   0.49444700  0.99739900  0.33679800
   0.49444700  0.99739900  0.83679800
   0.99444700  0.49739900  0.33679800
   0.99444700  0.49739900  0.83679800
   0.99444700  0.99739900  0.33679800
   0.99444700  0.99739900  0.83679800
   0.49444700  0.33679800  0.49739900
   0.49444700  0.33679800  0.99739900
   0.49444700  0.83679800  0.49739900
   0.49444700  0.83679800  0.99739900
   0.99444700  0.33679800  0.49739900
   0.99444700  0.33679800  0.99739900
   0.99444700  0.83679800  0.49739900
   0.99444700  0.83679800  0.99739900
   0.17079500  0.00295000  0.00295000
   0.17079500  0.00295000  0.50295000
   0.17079500  0.50295000  0.00295000
   0.17079500  0.50295000  0.50295000
   0.67079500  0.00295000  0.00295000
   0.67079500  0.00295000  0.50295000
   0.67079500  0.50295000  0.00295000
   0.67079500  0.50295000  0.50295000
   0.00347500  0.00275500  0.16436200
   0.00347500  0.00275500  0.66436200
   0.00347500  0.50275500  0.16436200
   0.00347500  0.50275500  0.66436200
   0.50347500  0.00275500  0.16436200
   0.50347500  0.00275500  0.66436200
   0.50347500  0.50275500  0.16436200
   0.50347500  0.50275500  0.66436200
   0.00347500  0.16436200  0.00275500
   0.00347500  0.16436200  0.50275500
   0.00347500  0.66436200  0.00275500
   0.00347500  0.66436200  0.50275500
   0.50347500  0.16436200  0.00275500
   0.50347500  0.16436200  0.50275500
   0.50347500  0.66436200  0.00275500
   0.50347500  0.66436200  0.50275500
   0.24799500  0.24900900  0.24900900
   0.24799500  0.24900900  0.74900900
   0.24799500  0.74900900  0.24900900
   0.24799500  0.74900900  0.74900900
   0.74799500  0.24900900  0.24900900
   0.74799500  0.24900900  0.74900900
   0.74799500  0.74900900  0.24900900
   0.74799500  0.74900900  0.74900900
   0.33833600  0.49792800  0.49792800
   0.33833600  0.49792800  0.99792800
   0.33833600  0.99792800  0.49792800
   0.33833600  0.99792800  0.99792800
   0.83833600  0.49792800  0.49792800
   0.83833600  0.49792800  0.99792800
   0.83833600  0.99792800  0.49792800
   0.83833600  0.99792800  0.99792800
   0.30608800  0.30943700  0.30943700
   0.30608800  0.30943700  0.80943700
   0.30608800  0.80943700  0.30943700
   0.30608800  0.80943700  0.80943700
   0.80608800  0.30943700  0.30943700
   0.80608800  0.30943700  0.80943700
   0.80608800  0.80943700  0.30943700
   0.80608800  0.80943700  0.80943700
   0.19098900  0.18883500  0.18883500
   0.19098900  0.18883500  0.68883500
   0.19098900  0.68883500  0.18883500
   0.19098900  0.68883500  0.68883500
   0.69098900  0.18883500  0.18883500
   0.69098900  0.18883500  0.68883500
   0.69098900  0.68883500  0.18883500
   0.69098900  0.68883500  0.68883500
unknown system                          
            1
     9.228338    0.053084    4.190623
     2.670231    9.105345    4.299031
    -0.055959    0.084429   10.416757
   B    C 
    96    24
Direct configuration=     2
   0.15799850  0.40367759  0.40367759
   0.15799850  0.40367759  0.90367759
   0.15799850  0.90367759  0.40367759
   0.15799850  0.90367759  0.90367759
   0.65799850  0.40367759  0.40367759
   0.65799850  0.40367759  0.90367759
   0.65799850  0.90367759  0.40367759
   0.65799850  0.90367759  0.90367759
   0.40121687  0.40164095  0.15781832
   0.40121687  0.40164095  0.65781832
   0.40121687  0.90164095  0.15781832
   0.40121687  0.90164095  0.65781832
   0.90121687  0.40164095  0.15781832
   0.90121687  0.40164095  0.65781832
   0.90121687  0.90164095  0.15781832
   0.90121687  0.90164095  0.65781832
   0.40121687  0.15781832  0.40164095
   0.40121687  0.15781832  0.90164095
   0.40121687  0.65781832  0.40164095
   0.40121687  0.65781832  0.90164095
   0.90121687  0.15781832  0.40164095
   0.90121687  0.15781832  0.90164095
   0.90121687  0.65781832  0.40164095
   0.90121687  0.65781832  0.90164095
   0.34108542  0.09685333  0.09685333
   0.34108542  0.09685333  0.59685333
   0.34108542  0.59685333  0.09685333
   0.34108542  0.59685333  0.59685333
   0.84108542  0.09685333  0.09685333
   0.84108542  0.09685333  0.59685333
   0.84108542  0.59685333  0.09685333
   0.84108542  0.59685333  0.59685333
   0.09904819  0.09736590  0.34350999
   0.09904819  0.09736590  0.84350999
   0.09904819  0.59736590  0.34350999
   0.09904819  0.59736590  0.84350999
   0.59904819  0.09736590  0.34350999
   0.59904819  0.09736590  0.84350999
   0.59904819  0.59736590  0.34350999
   0.59904819  0.59736590  0.84350999
   0.09904819  0.34350999  0.09736590
   0.09904819  0.34350999  0.59736590
   0.09904819  0.84350999  0.09736590
   0.09904819  0.84350999  0.59736590
   0.59904819  0.34350999  0.09736590
   0.59904819  0.34350999  0.59736590
   0.59904819  0.84350999  0.09736590
   0.59904819  0.84350999  0.59736590
   0.49429913  0.49747136  0.33717457
   0.49429913  0.49747136  0.83717457
   0.49429913  0.99747136  0.33717457
   0.49429913  0.99747136  0.83717457
   0.99429913  0.49747136  0.33717457
   0.99429913  0.49747136  0.83717457
   0.99429913  0.99747136  0.33717457
   0.99429913  0.99747136  0.83717457
   0.49429913  0.33717457  0.49747136
   0.49429913  0.33717457  0.99747136
   0.49429913  0.83717457  0.49747136
   0.49429913  0.83717457  0.99747136
   0.99429913  0.33717457  0.49747136
   0.99429913  0.33717457  0.99747136
   0.99429913  0.83717457  0.49747136
   0.99429913  0.83717457  0.99747136
   0.16971119  0.00324624  0.00324624
   0.16971119  0.00324624  0.50324624
   0.16971119  0.50324624  0.00324624
   0.16971119  0.50324624  0.50324624
   0.66971119  0.00324624  0.00324624
   0.66971119  0.00324624  0.50324624
   0.66971119  0.50324624  0.00324624
   0.66971119  0.50324624  0.50324624
   0.00377388  0.00287670  0.16425910
   0.00377388  0.00287670  0.66425910
   0.00377388  0.50287670  0.16425910
   0.00377388  0.50287670  0.66425910
   0.50377388  0.00287670  0.16425910
   0.50377388  0.00287670  0.66425910
   0.50377388  0.50287670  0.16425910
   0.50377388  0.50287670  0.66425910
   0.00377388  0.16425910  0.00287670
   0.00377388  0.16425910  0.50287670
   0.00377388  0.66425910  0.00287670
   0.00377388  0.66425910  0.50287670
   0.50377388  0.16425910  0.00287670
   0.50377388  0.16425910  0.50287670
   0.50377388  0.66425910  0.00287670
   0.50377388  0.66425910  0.50287670
   0.24824971  0.24970705  0.24970705
   0.24824971  0.24970705  0.74970705
   0.24824971  0.74970705  0.24970705
   0.24824971  0.74970705  0.74970705
   0.74824971  0.24970705  0.24970705
   0.74824971  0.24970705  0.74970705
   0.74824971  0.74970705  0.24970705
   0.74824971  0.74970705  0.74970705
   0.33963634  0.49772928  0.49772928
   0.33963634  0.49772928  0.99772928
   0.33963634  0.99772928  0.49772928
   0.33963634  0.99772928  0.99772928
   0.83963634  0.49772928  0.49772928
   0.83963634  0.49772928  0.99772928
   0.83963634  0.99772928  0.49772928
   0.83963634  0.99772928  0.99772928
   0.30562434  0.30915354  0.30915354
   0.30562434  0.30915354  0.80915354
   0.30562434  0.80915354  0.30915354
   0.30562434  0.80915354  0.80915354
   0.80562434  0.30915354  0.30915354
   0.80562434  0.30915354  0.80915354
   0.80562434  0.80915354  0.30915354
   0.80562434  0.80915354  0.80915354
   0.19101835  0.18751709  0.18751709
   0.19101835  0.18751709  0.68751709
   0.19101835  0.68751709  0.18751709
   0.19101835  0.68751709  0.68751709
   0.69101835  0.18751709  0.18751709
   0.69101835  0.18751709  0.68751709
   0.69101835  0.68751709  0.18751709
   0.69101835  0.68751709  0.68751709
unknown system                          
            1
     9.235579    0.051133    4.190972
     2.674621    9.101452    4.290147
    -0.052917    0.076076   10.410897
   B    C 
    96    24
Direct configuration=     3
   0.15794766  0.40373168  0.40373168
   0.15794766  0.40373168  0.90373168
   0.15794766  0.90373168  0.40373168
   0.15794766  0.90373168  0.90373168
   0.65794766  0.40373168  0.40373168
   0.65794766  0.40373168  0.90373168
   0.65794766  0.90373168  0.40373168
   0.65794766  0.90373168  0.90373168
   0.40149700  0.40211080  0.15741468
   0.40149700  0.40211080  0.65741468
   0.40149700  0.90211080  0.15741468
   0.40149700  0.90211080  0.65741468
   0.90149700  0.40211080  0.15741468
   0.90149700  0.40211080  0.65741468
   0.90149700  0.90211080  0.15741468
   0.90149700  0.90211080  0.65741468
   0.40149700  0.15741468  0.40211080
   0.40149700  0.15741468  0.90211080
   0.40149700  0.65741468  0.40211080
   0.40149700  0.65741468  0.90211080
   0.90149700  0.15741468  0.40211080
   0.90149700  0.15741468  0.90211080
   0.90149700  0.65741468  0.40211080
   0.90149700  0.65741468  0.90211080
   0.34127449  0.09672662  0.09672662
   0.34127449  0.09672662  0.59672662
   0.34127449  0.59672662  0.09672662
   0.34127449  0.59672662  0.59672662
   0.84127449  0.09672662  0.09672662
   0.84127449  0.09672662  0.59672662
   0.84127449  0.59672662  0.09672662
   0.84127449  0.59672662  0.59672662
   0.09881308  0.09700896  0.34364591
   0.09881308  0.09700896  0.84364591
   0.09881308  0.59700896  0.34364591
   0.09881308  0.59700896  0.84364591
   0.59881308  0.09700896  0.34364591
   0.59881308  0.09700896  0.84364591
   0.59881308  0.59700896  0.34364591
   0.59881308  0.59700896  0.84364591
   0.09881308  0.34364591  0.09700896
   0.09881308  0.34364591  0.59700896
   0.09881308  0.84364591  0.09700896
   0.09881308  0.84364591  0.59700896
   0.59881308  0.34364591  0.09700896
   0.59881308  0.34364591  0.59700896
   0.59881308  0.84364591  0.09700896
   0.59881308  0.84364591  0.59700896
   0.49439863  0.49742295  0.33692102
   0.49439863  0.49742295  0.83692102
   0.49439863  0.99742295  0.33692102
   0.49439863  0.99742295  0.83692102
   0.99439863  0.49742295  0.33692102
   0.99439863  0.49742295  0.83692102
   0.99439863  0.99742295  0.33692102
   0.99439863  0.99742295  0.83692102
   0.49439863  0.33692102  0.49742295
   0.49439863  0.33692102  0.99742295
   0.49439863  0.83692102  0.49742295
   0.49439863  0.83692102  0.99742295
   0.99439863  0.33692102  0.49742295
   0.99439863  0.33692102  0.99742295
   0.99439863  0.83692102  0.49742295
   0.99439863  0.83692102  0.99742295
   0.17044205  0.00304679  0.00304679
   0.17044205  0.00304679  0.50304679
   0.17044205  0.50304679  0.00304679
   0.17044205  0.50304679  0.50304679
   0.67044205  0.00304679  0.00304679
   0.67044205  0.00304679  0.50304679
   0.67044205  0.50304679  0.00304679
   0.67044205  0.50304679  0.50304679
   0.00357223  0.00279472  0.16432857
   0.00357223  0.00279472  0.66432857
   0.00357223  0.50279472  0.16432857
   0.00357223  0.50279472  0.66432857
   0.50357223  0.00279472  0.16432857
   0.50357223  0.00279472  0.66432857
   0.50357223  0.50279472  0.16432857
   0.50357223  0.50279472  0.66432857
   0.00357223  0.16432857  0.00279472
   0.00357223  0.16432857  0.50279472
   0.00357223  0.66432857  0.00279472
   0.00357223  0.66432857  0.50279472
   0.50357223  0.16432857  0.00279472
   0.50357223  0.16432857  0.50279472
   0.50357223  0.66432857  0.00279472
   0.50357223  0.66432857  0.50279472
   0.24807704  0.24923768  0.24923768
   0.24807704  0.24923768  0.74923768
   0.24807704  0.74923768  0.24923768
   0.24807704  0.74923768  0.74923768
   0.74807704  0.24923768  0.24923768
   0.74807704  0.24923768  0.74923768
   0.74807704  0.74923768  0.24923768
   0.74807704  0.74923768  0.74923768
   0.33875928  0.49786320  0.49786320
   0.33875928  0.49786320  0.99786320
   0.33875928  0.99786320  0.49786320
   0.33875928  0.99786320  0.99786320
   0.83875928  0.49786320  0.49786320
   0.83875928  0.49786320  0.99786320
   0.83875928  0.99786320  0.49786320
   0.83875928  0.99786320  0.99786320
   0.30593749  0.30934406  0.30934406
   0.30593749  0.30934406  0.80934406
   0.30593749  0.80934406  0.30934406
   0.30593749  0.80934406  0.80934406
   0.80593749  0.30934406  0.30934406
   0.80593749  0.30934406  0.80934406
   0.80593749  0.80934406  0.30934406
   0.80593749  0.80934406  0.80934406
   0.19100011  0.18840336  0.18840336
   0.19100011  0.18840336  0.68840336
   0.19100011  0.68840336  0.18840336
   0.19100011  0.68840336  0.68840336
   0.69100011  0.18840336  0.18840336
   0.69100011  0.18840336  0.68840336
   0.69100011  0.68840336  0.18840336
   0.69100011  0.68840336  0.68840336
unknown system                          
            1
     9.225521    0.050948    4.186217
     2.665172    9.106425    4.299217
    -0.060794    0.086250   10.416440
   B    C 
    96    24
Direct configuration=     4
   0.15788163  0.40377767  0.40377767
   0.15788163  0.40377767  0.90377767
   0.15788163  0.90377767  0.40377767
   0.15788163  0.90377767  0.90377767
   0.65788163  0.40377767  0.40377767
   0.65788163  0.40377767  0.90377767
   0.65788163  0.90377767  0.40377767
   0.65788163  0.90377767  0.90377767
   0.40131218  0.40162293  0.15771350
   0.40131218  0.40162293  0.65771350
   0.40131218  0.90162293  0.15771350
   0.40131218  0.90162293  0.65771350
   0.90131218  0.40162293  0.15771350
   0.90131218  0.40162293  0.65771350
   0.90131218  0.90162293  0.15771350
   0.90131218  0.90162293  0.65771350
   0.40131218  0.15771350  0.40162293
   0.40131218  0.15771350  0.90162293
   0.40131218  0.65771350  0.40162293
   0.40131218  0.65771350  0.90162293
   0.90131218  0.15771350  0.40162293
   0.90131218  0.15771350  0.90162293
   0.90131218  0.65771350  0.40162293
   0.90131218  0.65771350  0.90162293
   0.34127234  0.09667924  0.09667924
   0.34127234  0.09667924  0.59667924
   0.34127234  0.59667924  0.09667924
   0.34127234  0.59667924  0.59667924
   0.84127234  0.09667924  0.09667924
   0.84127234  0.09667924  0.59667924
   0.84127234  0.59667924  0.09667924
   0.84127234  0.59667924  0.59667924
   0.09907221  0.09745314  0.34343319
   0.09907221  0.09745314  0.84343319
   0.09907221  0.59745314  0.34343319
   0.09907221  0.59745314  0.84343319
   0.59907221  0.09745314  0.34343319
   0.59907221  0.09745314  0.84343319
   0.59907221  0.59745314  0.34343319
   0.59907221  0.59745314  0.84343319
   0.09907221  0.34343319  0.09745314
   0.09907221  0.34343319  0.59745314
   0.09907221  0.84343319  0.09745314
   0.09907221  0.84343319  0.59745314
   0.59907221  0.34343319  0.09745314
   0.59907221  0.34343319  0.59745314
   0.59907221  0.84343319  0.09745314
   0.59907221  0.84343319  0.59745314
   0.49428147  0.49758892  0.33722636
   0.49428147  0.49758892  0.83722636
   0.49428147  0.99758892  0.33722636
   0.49428147  0.99758892  0.83722636
   0.99428147  0.49758892  0.33722636
   0.99428147  0.49758892  0.83722636
   0.99428147  0.99758892  0.33722636
   0.99428147  0.99758892  0.83722636
   0.49428147  0.33722636  0.49758892
   0.49428147  0.33722636  0.99758892
   0.49428147  0.83722636  0.49758892
   0.49428147  0.83722636  0.99758892
   0.99428147  0.33722636  0.49758892
   0.99428147  0.33722636  0.99758892
   0.99428147  0.83722636  0.49758892
   0.99428147  0.83722636  0.99758892
   0.16983323  0.00328066  0.00328066
   0.16983323  0.00328066  0.50328066
   0.16983323  0.50328066  0.00328066
   0.16983323  0.50328066  0.50328066
   0.66983323  0.00328066  0.00328066
   0.66983323  0.00328066  0.50328066
   0.66983323  0.50328066  0.00328066
   0.66983323  0.50328066  0.50328066
   0.00379315  0.00281155  0.16438871
   0.00379315  0.00281155  0.66438871
   0.00379315  0.50281155  0.16438871
   0.00379315  0.50281155  0.66438871
   0.50379315  0.00281155  0.16438871
   0.50379315  0.00281155  0.66438871
   0.50379315  0.50281155  0.16438871
   0.50379315  0.50281155  0.66438871
   0.00379315  0.16438871  0.00281155
   0.00379315  0.16438871  0.50281155
   0.00379315  0.66438871  0.00281155
   0.00379315  0.66438871  0.50281155
   0.50379315  0.16438871  0.00281155
   0.50379315  0.16438871  0.50281155
   0.50379315  0.66438871  0.00281155
   0.50379315  0.66438871  0.50281155
   0.24739889  0.24891492  0.24891492
   0.24739889  0.24891492  0.74891492
   0.24739889  0.74891492  0.24891492
   0.24739889  0.74891492  0.74891492
   0.74739889  0.24891492  0.24891492
   0.74739889  0.24891492  0.74891492
   0.74739889  0.74891492  0.24891492
   0.74739889  0.74891492  0.74891492
   0.33958358  0.49770084  0.49770084
   0.33958358  0.49770084  0.99770084
   0.33958358  0.99770084  0.49770084
   0.33958358  0.99770084  0.99770084
   0.83958358  0.49770084  0.49770084
   0.83958358  0.49770084  0.99770084
   0.83958358  0.99770084  0.49770084
   0.83958358  0.99770084  0.99770084
   0.30557495  0.30953294  0.30953294
   0.30557495  0.30953294  0.80953294
   0.30557495  0.80953294  0.30953294
   0.30557495  0.80953294  0.80953294
   0.80557495  0.30953294  0.30953294
   0.80557495  0.30953294  0.80953294
   0.80557495  0.80953294  0.30953294
   0.80557495  0.80953294  0.80953294
   0.19153737  0.18787644  0.18787644
   0.19153737  0.18787644  0.68787644
   0.19153737  0.68787644  0.18787644
   0.19153737  0.68787644  0.68787644
   0.69153737  0.18787644  0.18787644
   0.69153737  0.18787644  0.68787644
   0.69153737  0.68787644  0.18787644
   0.69153737  0.68787644  0.68787644
unknown system                          
            1
     9.228800    0.051008    4.187767
     2.668253    9.104802    4.296259
    -0.058225    0.082933   10.414631
   B    C 
    96    24
Direct configuration=     5
   0.15790315  0.40376270  0.40376270
   0.15790315  0.40376270  0.90376270
   0.15790315  0.90376270  0.40376270
   0.15790315  0.90376270  0.90376270
   0.65790315  0.40376270  0.40376270
   0.65790315  0.40376270  0.90376270
   0.65790315  0.90376270  0.40376270
   0.65790315  0.90376270  0.90376270
   0.40137258  0.40178204  0.15761594
   0.40137258  0.40178204  0.65761594
   0.40137258  0.90178204  0.15761594
   0.40137258  0.90178204  0.65761594
   0.90137258  0.40178204  0.15761594
   0.90137258  0.40178204  0.65761594
   0.90137258  0.90178204  0.15761594
   0.90137258  0.90178204  0.65761594
   0.40137258  0.15761594  0.40178204
   0.40137258  0.15761594  0.90178204
   0.40137258  0.65761594  0.40178204
   0.40137258  0.65761594  0.90178204
   0.90137258  0.15761594  0.40178204
   0.90137258  0.15761594  0.90178204
   0.90137258  0.65761594  0.40178204
   0.90137258  0.65761594  0.90178204
   0.34127308  0.09669466  0.09669466
   0.34127308  0.09669466  0.59669466
   0.34127308  0.59669466  0.09669466
   0.34127308  0.59669466  0.59669466
   0.84127308  0.09669466  0.09669466
   0.84127308  0.09669466  0.59669466
   0.84127308  0.59669466  0.09669466
   0.84127308  0.59669466  0.59669466
   0.09898754  0.09730830  0.34350267
   0.09898754  0.09730830  0.84350267
   0.09898754  0.59730830  0.34350267
   0.09898754  0.59730830  0.84350267
   0.59898754  0.09730830  0.34350267
   0.59898754  0.09730830  0.84350267
   0.59898754  0.59730830  0.34350267
   0.59898754  0.59730830  0.84350267
   0.09898754  0.34350267  0.09730830
   0.09898754  0.34350267  0.59730830
   0.09898754  0.84350267  0.09730830
   0.09898754  0.84350267  0.59730830
   0.59898754  0.34350267  0.09730830
   0.59898754  0.34350267  0.59730830
   0.59898754  0.84350267  0.09730830
   0.59898754  0.84350267  0.59730830
   0.49431953  0.49753494  0.33712691
   0.49431953  0.49753494  0.83712691
   0.49431953  0.99753494  0.33712691
   0.49431953  0.99753494  0.83712691
   0.99431953  0.49753494  0.33712691
   0.99431953  0.49753494  0.83712691
   0.99431953  0.99753494  0.33712691
   0.99431953  0.99753494  0.83712691
   0.49431953  0.33712691  0.49753494
   0.49431953  0.33712691  0.99753494
   0.49431953  0.83712691  0.49753494
   0.49431953  0.83712691  0.99753494
   0.99431953  0.33712691  0.49753494
   0.99431953  0.33712691  0.99753494
   0.99431953  0.83712691  0.49753494
   0.99431953  0.83712691  0.99753494
   0.17003178  0.00320453  0.00320453
   0.17003178  0.00320453  0.50320453
   0.17003178  0.50320453  0.00320453
   0.17003178  0.50320453  0.50320453
   0.67003178  0.00320453  0.00320453
   0.67003178  0.00320453  0.50320453
   0.67003178  0.50320453  0.00320453
   0.67003178  0.50320453  0.50320453
   0.00372101  0.00280608  0.16436912
   0.00372101  0.00280608  0.66436912
   0.00372101  0.50280608  0.16436912
   0.00372101  0.50280608  0.66436912
   0.50372101  0.00280608  0.16436912
   0.50372101  0.00280608  0.66436912
   0.50372101  0.50280608  0.16436912
   0.50372101  0.50280608  0.66436912
   0.00372101  0.16436912  0.00280608
   0.00372101  0.16436912  0.50280608
   0.00372101  0.66436912  0.00280608
   0.00372101  0.66436912  0.50280608
   0.50372101  0.16436912  0.00280608
   0.50372101  0.16436912  0.50280608
   0.50372101  0.66436912  0.00280608
   0.50372101  0.66436912  0.50280608
   0.24762050  0.24901999  0.24901999
   0.24762050  0.24901999  0.74901999
   0.24762050  0.74901999  0.24901999
   0.24762050  0.74901999  0.74901999
   0.74762050  0.24901999  0.24901999
   0.74762050  0.24901999  0.74901999
   0.74762050  0.74901999  0.24901999
   0.74762050  0.74901999  0.74901999
   0.33931463  0.49775369  0.49775369
   0.33931463  0.49775369  0.99775369
   0.33931463  0.99775369  0.49775369
   0.33931463  0.99775369  0.99775369
   0.83931463  0.49775369  0.49775369
   0.83931463  0.49775369  0.99775369
   0.83931463  0.99775369  0.49775369
   0.83931463  0.99775369  0.99775369
   0.30569315  0.30947145  0.30947145
   0.30569315  0.30947145  0.80947145
   0.30569315  0.80947145  0.30947145
   0.30569315  0.80947145  0.80947145
   0.80569315  0.30947145  0.30947145
   0.80569315  0.30947145  0.80947145
   0.80569315  0.80947145  0.30947145
   0.80569315  0.80947145  0.80947145
   0.19136239  0.18804797  0.18804797
   0.19136239  0.18804797  0.68804797
   0.19136239  0.68804797  0.18804797
   0.19136239  0.68804797  0.68804797
   0.69136239  0.18804797  0.18804797
   0.69136239  0.18804797  0.68804797
   0.69136239  0.68804797  0.18804797
   0.69136239  0.68804797  0.68804797
unknown system                          
            1
     9.221029    0.047915    4.179742
     2.656830    9.108222    4.301480
    -0.068256    0.090959   10.416728
   B    C 
    96    24
Direct configuration=     6
   0.15778219  0.40398021  0.40398021
   0.15778219  0.40398021  0.90398021
   0.15778219  0.90398021  0.40398021
   0.15778219  0.90398021  0.90398021
   0.65778219  0.40398021  0.40398021
   0.65778219  0.40398021  0.90398021
   0.65778219  0.90398021  0.40398021
   0.65778219  0.90398021  0.90398021
   0.40143917  0.40156780  0.15769782
   0.40143917  0.40156780  0.65769782
   0.40143917  0.90156780  0.15769782
   0.40143917  0.90156780  0.65769782
   0.90143917  0.40156780  0.15769782
   0.90143917  0.40156780  0.65769782
   0.90143917  0.90156780  0.15769782
   0.90143917  0.90156780  0.65769782
   0.40143917  0.15769782  0.40156780
   0.40143917  0.15769782  0.90156780
   0.40143917  0.65769782  0.40156780
   0.40143917  0.65769782  0.90156780
   0.90143917  0.15769782  0.40156780
   0.90143917  0.15769782  0.90156780
   0.90143917  0.65769782  0.40156780
   0.90143917  0.65769782  0.90156780
   0.34175266  0.09630896  0.09630896
   0.34175266  0.09630896  0.59630896
   0.34175266  0.59630896  0.09630896
   0.34175266  0.59630896  0.59630896
   0.84175266  0.09630896  0.09630896
   0.84175266  0.09630896  0.59630896
   0.84175266  0.59630896  0.09630896
   0.84175266  0.59630896  0.59630896
   0.09905974  0.09754665  0.34351634
   0.09905974  0.09754665  0.84351634
   0.09905974  0.59754665  0.34351634
   0.09905974  0.59754665  0.84351634
   0.59905974  0.09754665  0.34351634
   0.59905974  0.09754665  0.84351634
   0.59905974  0.59754665  0.34351634
   0.59905974  0.59754665  0.84351634
   0.09905974  0.34351634  0.09754665
   0.09905974  0.34351634  0.59754665
   0.09905974  0.84351634  0.09754665
   0.09905974  0.84351634  0.59754665
   0.59905974  0.34351634  0.09754665
   0.59905974  0.34351634  0.59754665
   0.59905974  0.84351634  0.09754665
   0.59905974  0.84351634  0.59754665
   0.49426310  0.49783629  0.33724200
   0.49426310  0.49783629  0.83724200
   0.49426310  0.99783629  0.33724200
   0.49426310  0.99783629  0.83724200
   0.99426310  0.49783629  0.33724200
   0.99426310  0.49783629  0.83724200
   0.99426310  0.99783629  0.33724200
   0.99426310  0.99783629  0.83724200
   0.49426310  0.33724200  0.49783629
   0.49426310  0.33724200  0.99783629
   0.49426310  0.83724200  0.49783629
   0.49426310  0.83724200  0.99783629
   0.99426310  0.33724200  0.49783629
   0.99426310  0.33724200  0.99783629
   0.99426310  0.83724200  0.49783629
   0.99426310  0.83724200  0.99783629
   0.17013296  0.00334078  0.00334078
   0.17013296  0.00334078  0.50334078
   0.17013296  0.50334078  0.00334078
   0.17013296  0.50334078  0.50334078
   0.67013296  0.00334078  0.00334078
   0.67013296  0.00334078  0.50334078
   0.67013296  0.50334078  0.00334078
   0.67013296  0.50334078  0.50334078
   0.00386328  0.00268268  0.16460898
   0.00386328  0.00268268  0.66460898
   0.00386328  0.50268268  0.16460898
   0.00386328  0.50268268  0.66460898
   0.50386328  0.00268268  0.16460898
   0.50386328  0.00268268  0.66460898
   0.50386328  0.50268268  0.16460898
   0.50386328  0.50268268  0.66460898
   0.00386328  0.16460898  0.00268268
   0.00386328  0.16460898  0.50268268
   0.00386328  0.66460898  0.00268268
   0.00386328  0.66460898  0.50268268
   0.50386328  0.16460898  0.00268268
   0.50386328  0.16460898  0.50268268
   0.50386328  0.66460898  0.00268268
   0.50386328  0.66460898  0.50268268
   0.24709764  0.24892527  0.24892527
   0.24709764  0.24892527  0.74892527
   0.24709764  0.74892527  0.24892527
   0.24709764  0.74892527  0.74892527
   0.74709764  0.24892527  0.24892527
   0.74709764  0.24892527  0.74892527
   0.74709764  0.74892527  0.24892527
   0.74709764  0.74892527  0.74892527
   0.33935922  0.49769277  0.49769277
   0.33935922  0.49769277  0.99769277
   0.33935922  0.99769277  0.49769277
   0.33935922  0.99769277  0.99769277
   0.83935922  0.49769277  0.49769277
   0.83935922  0.49769277  0.99769277
   0.83935922  0.99769277  0.49769277
   0.83935922  0.99769277  0.99769277
   0.30477884  0.30945486  0.30945486
   0.30477884  0.30945486  0.80945486
   0.30477884  0.80945486  0.30945486
   0.30477884  0.80945486  0.80945486
   0.80477884  0.30945486  0.30945486
   0.80477884  0.30945486  0.80945486
   0.80477884  0.80945486  0.30945486
   0.80477884  0.80945486  0.80945486
   0.19184591  0.18759958  0.18759958
   0.19184591  0.18759958  0.68759958
   0.19184591  0.68759958  0.18759958
   0.19184591  0.68759958  0.68759958
   0.69184591  0.18759958  0.18759958
   0.69184591  0.18759958  0.68759958
   0.69184591  0.68759958  0.18759958
   0.69184591  0.68759958  0.68759958
unknown system                          
            1
     9.216745    0.046207    4.175315
     2.650527    9.110115    4.304365
    -0.073792    0.095390   10.417892
   B    C 
    96    24
Direct configuration=     7
   0.15771569  0.40410010  0.40410010
   0.15771569  0.40410010  0.90410010
   0.15771569  0.90410010  0.40410010
   0.15771569  0.90410010  0.90410010
   0.65771569  0.40410010  0.40410010
   0.65771569  0.40410010  0.90410010
   0.65771569  0.90410010  0.40410010
   0.65771569  0.90410010  0.90410010
   0.40147586  0.40144956  0.15774312
   0.40147586  0.40144956  0.65774312
   0.40147586  0.90144956  0.15774312
   0.40147586  0.90144956  0.65774312
   0.90147586  0.40144956  0.15774312
   0.90147586  0.40144956  0.65774312
   0.90147586  0.90144956  0.15774312
   0.90147586  0.90144956  0.65774312
   0.40147586  0.15774312  0.40144956
   0.40147586  0.15774312  0.90144956
   0.40147586  0.65774312  0.40144956
   0.40147586  0.65774312  0.90144956
   0.90147586  0.15774312  0.40144956
   0.90147586  0.15774312  0.90144956
   0.90147586  0.65774312  0.40144956