 112 112   0   0
  0.7677602E+01  0.1037324E-08  0.1074424E-08  0.1036280E-08  0.5000000E-15
   1.0000000000000000E-004
  CAR 
 unknown system                          
     13.55131028    -11.90678498  301      4.16237921      1.00000000
    -11.907  0.0000E+00  0.0000E+00
    -11.822  0.0000E+00  0.0000E+00
    -11.737  0.0000E+00  0.0000E+00
    -11.652  0.0000E+00  0.0000E+00
    -11.567  0.0000E+00  0.0000E+00
    -11.482  0.0000E+00  0.0000E+00
    -11.398  0.0000E+00  0.0000E+00
    -11.313  0.0000E+00  0.0000E+00
    -11.228  0.0000E+00  0.0000E+00
    -11.143  0.0000E+00  0.0000E+00
    -11.058  0.0000E+00  0.0000E+00
    -10.973  0.0000E+00  0.0000E+00
    -10.888  0.0000E+00  0.0000E+00
    -10.804  0.0000E+00  0.0000E+00
    -10.719  0.3513E-03  0.3613E-05
    -10.634  0.4939E-02  0.1905E-03
    -10.549  0.1484E-01  0.9922E-03
    -10.464  0.5978E-01  0.3280E-02
    -10.379  0.2309E-01  0.1194E-01
    -10.294  0.6495E-02  0.1313E-01
    -10.210  0.8508E-04  0.1333E-01
    -10.125  0.3019E-01  0.1356E-01
    -10.040  0.1069E+00  0.2045E-01
     -9.955  0.1330E+00  0.3112E-01
     -9.870  0.6907E-01  0.3921E-01
     -9.785  0.1212E+00  0.4934E-01
     -9.700  0.0000E+00  0.5333E-01
     -9.616  0.0000E+00  0.5333E-01
     -9.531  0.0000E+00  0.5333E-01
     -9.446  0.0000E+00  0.5333E-01
     -9.361  0.0000E+00  0.5333E-01
     -9.276  0.0000E+00  0.5333E-01
     -9.191  0.0000E+00  0.5333E-01
     -9.106  0.0000E+00  0.5333E-01
     -9.022  0.0000E+00  0.5333E-01
     -8.937  0.0000E+00  0.5333E-01
     -8.852  0.1795E-03  0.5333E-01
     -8.767  0.5971E-02  0.5354E-01
     -8.682  0.1992E-01  0.5458E-01
     -8.597  0.4710E-01  0.5726E-01
     -8.512  0.9794E-01  0.6327E-01
     -8.428  0.1849E+00  0.7560E-01
     -8.343  0.1399E-01  0.8193E-01
     -8.258  0.1830E-01  0.8330E-01
     -8.173  0.2259E-01  0.8504E-01
     -8.088  0.2686E-01  0.8714E-01
     -8.003  0.8467E-01  0.9147E-01
     -7.918  0.4998E-01  0.9817E-01
     -7.833  0.1218E+00  0.1013E+00
     -7.749  0.8969E-01  0.1140E+00
     -7.664  0.7018E-01  0.1207E+00
     -7.579  0.5157E-01  0.1259E+00
     -7.494  0.3387E-01  0.1295E+00
     -7.409  0.1867E-01  0.1317E+00
     -7.324  0.8303E-02  0.1328E+00
     -7.239  0.2359E-01  0.1334E+00
     -7.155  0.1016E+00  0.1392E+00
     -7.070  0.5728E-02  0.1466E+00
     -6.985  0.1083E+00  0.1506E+00
     -6.900  0.3751E-01  0.1567E+00
     -6.815  0.1678E-01  0.1590E+00
     -6.730  0.4866E-02  0.1598E+00
     -6.645  0.1839E-03  0.1600E+00
     -6.561  0.0000E+00  0.1600E+00
     -6.476  0.5667E-01  0.1630E+00
     -6.391  0.5998E-01  0.1681E+00
     -6.306  0.6040E-01  0.1733E+00
     -6.221  0.2385E+00  0.1809E+00
     -6.136  0.2613E-01  0.1872E+00
     -6.051  0.6686E-01  0.1917E+00
     -5.967  0.7149E-01  0.1976E+00
     -5.882  0.2351E+00  0.2074E+00
     -5.797  0.5773E-01  0.2170E+00
     -5.712  0.9477E-01  0.2238E+00
     -5.627  0.7071E-01  0.2312E+00
     -5.542  0.6820E-01  0.2362E+00
     -5.457  0.9894E-01  0.2435E+00
     -5.373  0.1006E+00  0.2521E+00
     -5.288  0.8605E-01  0.2598E+00
     -5.203  0.7006E-01  0.2648E+00
     -5.118  0.6010E-01  0.2711E+00
     -5.033  0.2981E-01  0.2731E+00
     -4.948  0.5517E-01  0.2774E+00
     -4.863  0.1654E-02  0.2800E+00
     -4.779  0.5400E-01  0.2834E+00
     -4.694  0.3510E-01  0.2862E+00
     -4.609  0.1285E+00  0.2965E+00
     -4.524  0.6970E-01  0.3034E+00
     -4.439  0.5682E-01  0.3087E+00
     -4.354  0.4406E-01  0.3130E+00
     -4.269  0.3143E-01  0.3162E+00
     -4.184  0.1892E-01  0.3184E+00
     -4.100  0.7470E-02  0.3194E+00
     -4.015  0.2887E-02  0.3199E+00
     -3.930  0.4421E-03  0.3200E+00
     -3.845  0.0000E+00  0.3200E+00
     -3.760  0.1217E-02  0.3200E+00
     -3.675  0.5058E-02  0.3203E+00
     -3.590  0.1748E-01  0.3212E+00
     -3.506  0.3387E-01  0.3233E+00
     -3.421  0.5131E-01  0.3269E+00
     -3.336  0.6980E-01  0.3321E+00
     -3.251  0.1098E+00  0.3398E+00
     -3.166  0.4872E-01  0.3469E+00
     -3.081  0.2702E-01  0.3503E+00
     -2.996  0.2707E-01  0.3523E+00
     -2.912  0.9748E-01  0.3593E+00
     -2.827  0.7941E-01  0.3653E+00
     -2.742  0.8082E-01  0.3722E+00
     -2.657  0.8827E-01  0.3792E+00
     -2.572  0.8722E-01  0.3870E+00
     -2.487  0.7268E-01  0.3939E+00
     -2.402  0.3527E-01  0.3979E+00
     -2.318  0.1573E+00  0.4057E+00
     -2.233  0.7668E-01  0.4149E+00
     -2.148  0.5274E-01  0.4204E+00
     -2.063  0.1165E+00  0.4273E+00
     -1.978  0.1403E+00  0.4393E+00
     -1.893  0.1774E+00  0.4497E+00
     -1.808  0.1459E+00  0.4655E+00
     -1.724  0.1447E+00  0.4777E+00
     -1.639  0.1023E+00  0.4895E+00
     -1.554  0.1703E-01  0.4929E+00
     -1.469  0.4578E-01  0.4948E+00
     -1.384  0.1232E+00  0.5025E+00
     -1.299  0.1301E+00  0.5137E+00
     -1.214  0.8231E+00  0.5243E+00
     -1.130  0.6142E-01  0.5320E+00
     -1.045  0.5909E-01  0.5371E+00
     -0.960  0.1417E+00  0.5431E+00
     -0.875  0.1639E+00  0.5569E+00
     -0.790  0.1413E+00  0.5698E+00
     -0.705  0.1140E+00  0.5807E+00
     -0.620  0.1257E+00  0.5951E+00
     -0.536  0.2798E-01  0.5993E+00
     -0.451  0.2109E-01  0.6011E+00
     -0.366  0.4056E-01  0.6037E+00
     -0.281  0.5172E-01  0.6077E+00
     -0.196  0.5931E-01  0.6124E+00
     -0.111  0.6527E-01  0.6177E+00
     -0.026  0.6851E-01  0.6234E+00
      0.059  0.6590E-01  0.6298E+00
      0.143  0.4035E-01  0.6326E+00
      0.228  0.5680E-01  0.6367E+00
      0.313  0.9722E-01  0.6449E+00
      0.398  0.1274E+00  0.6532E+00
      0.483  0.2339E+00  0.6717E+00
      0.568  0.2706E+00  0.6946E+00
      0.653  0.1073E+00  0.7065E+00
      0.737  0.1228E+00  0.7156E+00
      0.822  0.1002E+00  0.7236E+00
      0.907  0.9387E-01  0.7320E+00
      0.992  0.9215E-01  0.7394E+00
      1.077  0.9354E-01  0.7505E+00
      1.162  0.1657E+00  0.7622E+00
      1.247  0.1718E+00  0.7822E+00
      1.331  0.1103E+00  0.7878E+00
      1.416  0.2936E+00  0.8128E+00
      1.501  0.1261E+00  0.8342E+00
      1.586  0.8264E-01  0.8423E+00
      1.671  0.7050E-01  0.8487E+00
      1.756  0.6262E-01  0.8544E+00
      1.841  0.5353E-01  0.8593E+00
      1.925  0.4164E-01  0.8634E+00
      2.010  0.1961E-01  0.8660E+00
      2.095  0.9729E-01  0.8694E+00
      2.180  0.3346E+00  0.8923E+00
      2.265  0.3910E+00  0.9239E+00
      2.350  0.3216E+00  0.9493E+00
      2.435  0.1926E+00  0.9620E+00
      2.519  0.1462E+00  0.9780E+00
      2.604  0.1692E+00  0.9870E+00
      2.689  0.5720E-01  0.9958E+00
      2.774  0.2040E+00  0.1007E+01
      2.859  0.2164E+00  0.1026E+01
      2.944  0.2514E+00  0.1052E+01
      3.029  0.1766E+00  0.1065E+01
      3.113  0.1384E+00  0.1079E+01
      3.198  0.7813E-01  0.1088E+01
      3.283  0.1557E+00  0.1101E+01
      3.368  0.2032E-01  0.1106E+01
      3.453  0.8705E-02  0.1107E+01
      3.538  0.7808E-01  0.1110E+01
      3.623  0.1818E+00  0.1121E+01
      3.708  0.6868E-01  0.1137E+01
      3.792  0.9925E-01  0.1143E+01
      3.877  0.1048E+00  0.1152E+01
      3.962  0.6571E-01  0.1159E+01
      4.047  0.4647E-01  0.1164E+01
      4.132  0.1124E+00  0.1170E+01
      4.217  0.6843E-02  0.1174E+01
      4.302  0.9811E-02  0.1175E+01
      4.386  0.1351E-01  0.1176E+01
      4.471  0.1794E-01  0.1177E+01
      4.556  0.2311E-01  0.1179E+01
      4.641  0.5002E-01  0.1183E+01
      4.726  0.2211E-01  0.1186E+01
      4.811  0.0000E+00  0.1187E+01
      4.896  0.0000E+00  0.1187E+01
      4.980  0.0000E+00  0.1187E+01
      5.065  0.1114E-01  0.1187E+01
      5.150  0.2231E+00  0.1197E+01
      5.235  0.1039E+00  0.1207E+01
      5.320  0.1194E+00  0.1217E+01
      5.405  0.3928E-01  0.1227E+01
      5.490  0.0000E+00  0.1227E+01
      5.574  0.9563E-03  0.1227E+01
      5.659  0.9417E-02  0.1227E+01
      5.744  0.3366E-01  0.1229E+01
      5.829  0.4588E-01  0.1232E+01
      5.914  0.4608E-01  0.1236E+01
      5.999  0.3427E-01  0.1240E+01
      6.084  0.8947E-01  0.1247E+01
      6.168  0.6785E-01  0.1252E+01
      6.253  0.7052E-01  0.1258E+01
      6.338  0.7710E-01  0.1263E+01
      6.423  0.4346E-01  0.1273E+01
      6.508  0.2615E-01  0.1276E+01
      6.593  0.1666E-01  0.1278E+01
      6.678  0.9483E-02  0.1279E+01
      6.762  0.4314E-02  0.1280E+01
      6.847  0.1155E-02  0.1280E+01
      6.932  0.5210E-05  0.1280E+01
      7.017  0.0000E+00  0.1280E+01
      7.102  0.0000E+00  0.1280E+01
      7.187  0.0000E+00  0.1280E+01
      7.272  0.0000E+00  0.1280E+01
      7.357  0.0000E+00  0.1280E+01
      7.441  0.0000E+00  0.1280E+01
      7.526  0.0000E+00  0.1280E+01
      7.611  0.0000E+00  0.1280E+01
      7.696  0.0000E+00  0.1280E+01
      7.781  0.0000E+00  0.1280E+01
      7.866  0.0000E+00  0.1280E+01
      7.951  0.0000E+00  0.1280E+01
      8.035  0.3712E-04  0.1280E+01
      8.120  0.1251E-02  0.1280E+01
      8.205  0.4183E-02  0.1280E+01
      8.290  0.8832E-02  0.1281E+01
      8.375  0.1520E-01  0.1282E+01
      8.460  0.2328E-01  0.1283E+01
      8.545  0.4437E-01  0.1286E+01
      8.629  0.3372E-01  0.1290E+01
      8.714  0.2209E-01  0.1292E+01
      8.799  0.6823E-01  0.1295E+01
      8.884  0.9204E-01  0.1303E+01
      8.969  0.7874E-01  0.1310E+01
      9.054  0.6043E-01  0.1316E+01
      9.139  0.7231E-01  0.1321E+01
      9.223  0.6170E-01  0.1327E+01
      9.308  0.3670E-01  0.1331E+01
      9.393  0.3649E-01  0.1334E+01
      9.478  0.5601E-01  0.1338E+01
      9.563  0.9699E-01  0.1344E+01
      9.648  0.1977E+00  0.1362E+01
      9.733  0.4203E-01  0.1366E+01
      9.817  0.5142E-01  0.1370E+01
      9.902  0.5536E-01  0.1374E+01
      9.987  0.4948E-01  0.1379E+01
     10.072  0.1085E+00  0.1384E+01
     10.157  0.9942E-01  0.1390E+01
     10.242  0.2204E+00  0.1407E+01
     10.327  0.7834E-01  0.1416E+01
     10.411  0.1235E+00  0.1427E+01
     10.496  0.7786E-01  0.1433E+01
     10.581  0.2472E-01  0.1442E+01
     10.666  0.2827E-01  0.1444E+01
     10.751  0.3874E-01  0.1447E+01
     10.836  0.4503E-01  0.1450E+01
     10.921  0.4991E-01  0.1454E+01
     11.006  0.5359E-01  0.1459E+01
     11.090  0.5607E-01  0.1463E+01
     11.175  0.5734E-01  0.1468E+01
     11.260  0.5740E-01  0.1473E+01
     11.345  0.5626E-01  0.1478E+01
     11.430  0.4621E-01  0.1483E+01
     11.515  0.8217E-01  0.1489E+01
     11.600  0.1635E+00  0.1500E+01
     11.684  0.7534E-01  0.1507E+01
     11.769  0.6845E-01  0.1513E+01
     11.854  0.7091E-01  0.1518E+01
     11.939  0.7149E-01  0.1524E+01
     12.024  0.3713E-01  0.1529E+01
     12.109  0.3226E-01  0.1532E+01
     12.194  0.1504E+00  0.1538E+01
     12.278  0.3276E-01  0.1547E+01
     12.363  0.5882E-01  0.1552E+01
     12.448  0.0000E+00  0.1553E+01
     12.533  0.0000E+00  0.1553E+01
     12.618  0.0000E+00  0.1553E+01
     12.703  0.0000E+00  0.1553E+01
     12.788  0.0000E+00  0.1553E+01
     12.872  0.0000E+00  0.1553E+01
     12.957  0.0000E+00  0.1553E+01
     13.042  0.0000E+00  0.1553E+01
     13.127  0.0000E+00  0.1553E+01
     13.212  0.0000E+00  0.1553E+01
     13.297  0.0000E+00  0.1553E+01
     13.382  0.0000E+00  0.1553E+01
     13.466  0.0000E+00  0.1553E+01
     13.551  0.0000E+00  0.1553E+01
