[1652875206.421852] [c1107a-s11:49953:0]    ucp_context.c:1075 UCX  ERROR exceeded transports/devices limit (78 requested, up to 64 are supported)
 running on    1 total cores
 distrk:  each k-point on    1 cores,    1 groups
 distr:  one band on    1 cores,    1 groups
 OpenACC runtime initialized ...    1 GPUs detected
 vasp.6.2.0 18Jan21 (build Feb 25 2021 07:51:20) complex                         
 POSCAR found type information on POSCAR B C 
 POSCAR found :  2 types and     112 ions
 scaLAPACK will be used selectively (only on CPU)
 LDA part: xc-table for Pade appr. of Perdew
 -----------------------------------------------------------------------------
|                                                                             |
|           W    W    AA    RRRRR   N    N  II  N    N   GGGG   !!!           |
|           W    W   A  A   R    R  NN   N  II  NN   N  G    G  !!!           |
|           W    W  A    A  R    R  N N  N  II  N N  N  G       !!!           |
|           W WW W  AAAAAA  RRRRR   N  N N  II  N  N N  G  GGG   !            |
|           WW  WW  A    A  R   R   N   NN  II  N   NN  G    G                |
|           W    W  A    A  R    R  N    N  II  N    N   GGGG   !!!           |
|                                                                             |
|     The requested file  could not be found or opened for reading            |
|     k-point information. Automatic k-point generation is used as a          |
|     fallback, which may lead to unwanted results.                           |
|                                                                             |
 -----------------------------------------------------------------------------

 POSCAR, INCAR and KPOINTS ok, starting setup
 FFT: planning ...
 WAVECAR not read
 entering main loop
       N       E                     dE             d eps       ncg     rms          rms(c)
DAV:   1     0.139234997881E+04    0.13923E+04   -0.19798E+05  3728   0.176E+03
DAV:   2    -0.694435170503E+03   -0.20868E+04   -0.19679E+04  4608   0.309E+02
DAV:   3    -0.824886966491E+03   -0.13045E+03   -0.12657E+03  4472   0.678E+01
DAV:   4    -0.827939554336E+03   -0.30526E+01   -0.30331E+01  4400   0.108E+01
DAV:   5    -0.828028528979E+03   -0.88975E-01   -0.88800E-01  4456   0.175E+00    0.401E+01
RMM:   6    -0.788258339266E+03    0.39770E+02   -0.36822E+01  3728   0.914E+00    0.225E+01
RMM:   7    -0.776808585943E+03    0.11450E+02   -0.43576E+01  3728   0.102E+01    0.498E+00
RMM:   8    -0.776927693752E+03   -0.11911E+00   -0.37582E+00  3728   0.396E+00    0.249E+00
RMM:   9    -0.776994927310E+03   -0.67234E-01   -0.67899E-01  3757   0.154E+00    0.942E-01
RMM:  10    -0.776986042141E+03    0.88852E-02   -0.12138E-01  3738   0.635E-01    0.455E-01
RMM:  11    -0.776994108593E+03   -0.80665E-02   -0.29161E-02  3774   0.290E-01    0.200E-01
RMM:  12    -0.776992239162E+03    0.18694E-02   -0.77362E-03  3770   0.139E-01    0.261E-01
RMM:  13    -0.776995344024E+03   -0.31049E-02   -0.40198E-03  3728   0.103E-01    0.189E-01
RMM:  14    -0.776993918996E+03    0.14250E-02   -0.85693E-04  3747   0.501E-02    0.139E-01
RMM:  15    -0.776993378951E+03    0.54005E-03   -0.36997E-04  3749   0.287E-02    0.215E-01
RMM:  16    -0.776993771215E+03   -0.39226E-03   -0.81673E-05  3733   0.158E-02    0.126E-01
RMM:  17    -0.776993627594E+03    0.14362E-03   -0.18200E-05  3877   0.678E-03    0.203E-01
RMM:  18    -0.776993787047E+03   -0.15945E-03   -0.12335E-05  3719   0.566E-03    0.126E-01
RMM:  19    -0.776993653294E+03    0.13375E-03   -0.55747E-06  3522   0.413E-03    0.201E-01
RMM:  20    -0.776993783740E+03   -0.13045E-03   -0.46499E-06  3346   0.360E-03    0.126E-01
RMM:  21    -0.776993697407E+03    0.86333E-04   -0.19145E-06  2304   0.267E-03    0.198E-01
RMM:  22    -0.776993810910E+03   -0.11350E-03   -0.40744E-06  3229   0.333E-03    0.128E-01
RMM:  23    -0.776993732126E+03    0.78784E-04   -0.15584E-06  2297   0.254E-03    0.196E-01
RMM:  24    -0.776993827669E+03   -0.95543E-04   -0.27772E-06  2458   0.285E-03    0.129E-01
RMM:  25    -0.776993755033E+03    0.72636E-04   -0.15321E-06  2275   0.255E-03    0.125E-01
RMM:  26    -0.776993724245E+03    0.30788E-04   -0.81635E-07  2245   0.148E-03    0.196E-01
RMM:  27    -0.776993815966E+03   -0.91721E-04   -0.26828E-06  2279   0.316E-03    0.128E-01
RMM:  28    -0.776993742074E+03    0.73891E-04   -0.16400E-06  2221   0.257E-03    0.125E-01
RMM:  29    -0.776993736933E+03    0.51414E-05   -0.20733E-07  2205   0.968E-04    0.124E-01
RMM:  30    -0.776993738098E+03   -0.11656E-05   -0.82914E-10   748   0.318E-04    0.124E-01
RMM:  31    -0.776993671248E+03    0.66851E-04   -0.18724E-06  2202   0.193E-03    0.199E-01
RMM:  32    -0.776993847829E+03   -0.17658E-03   -0.10856E-05  3709   0.501E-03    0.130E-01
RMM:  33    -0.776993696423E+03    0.15141E-03   -0.71247E-06  3551   0.404E-03    0.198E-01
RMM:  34    -0.776993855600E+03   -0.15918E-03   -0.84571E-06  3649   0.434E-03    0.131E-01
RMM:  35    -0.776993722549E+03    0.13305E-03   -0.55946E-06  3343   0.369E-03    0.196E-01
RMM:  36    -0.776993875956E+03   -0.15341E-03   -0.79477E-06  3628   0.420E-03    0.132E-01
RMM:  37    -0.776993754254E+03    0.12170E-03   -0.45339E-06  3153   0.342E-03    0.125E-01
RMM:  38    -0.776993729845E+03    0.24409E-04   -0.54041E-07  2170   0.120E-03    0.196E-01
RMM:  39    -0.776993880046E+03   -0.15020E-03   -0.81731E-06  3632   0.442E-03    0.132E-01
RMM:  40    -0.776993752025E+03    0.12802E-03   -0.49734E-06  3261   0.354E-03    0.125E-01
RMM:  41    -0.776993731650E+03    0.20376E-04   -0.44989E-07  2153   0.111E-03    0.196E-01
RMM:  42    -0.776993871332E+03   -0.13968E-03   -0.70280E-06  3540   0.417E-03    0.132E-01
RMM:  43    -0.776993746862E+03    0.12447E-03   -0.47685E-06  3193   0.347E-03    0.125E-01
RMM:  44    -0.776993729617E+03    0.17245E-04   -0.39253E-07  2135   0.106E-03    0.196E-01
RMM:  45    -0.776993858742E+03   -0.12912E-03   -0.59682E-06  3411   0.393E-03    0.131E-01
RMM:  46    -0.776993740493E+03    0.11825E-03   -0.43520E-06  3099   0.335E-03    0.125E-01
RMM:  47    -0.776993723543E+03    0.16950E-04   -0.39247E-07  2121   0.108E-03    0.196E-01
RMM:  48    -0.776993843008E+03   -0.11947E-03   -0.50384E-06  3205   0.371E-03    0.130E-01
RMM:  49    -0.776993730365E+03    0.11264E-03   -0.39661E-06  2926   0.324E-03    0.196E-01
RMM:  50    -0.776993851803E+03   -0.12144E-03   -0.46848E-06  3213   0.342E-03    0.131E-01
RMM:  51    -0.776993751201E+03    0.10060E-03   -0.28315E-06  2289   0.291E-03    0.125E-01
RMM:  52    -0.776993734862E+03    0.16340E-04   -0.50927E-07  2106   0.124E-03    0.124E-01
RMM:  53    -0.776993699255E+03    0.35607E-04   -0.75378E-07  2100   0.121E-03    0.198E-01
RMM:  54    -0.776993823792E+03   -0.12454E-03   -0.50483E-06  3329   0.378E-03    0.129E-01
RMM:  55    -0.776993727502E+03    0.96291E-04   -0.24895E-06  2142   0.278E-03    0.196E-01
RMM:  56    -0.776993784488E+03   -0.56986E-04   -0.86399E-07  2085   0.225E-03    0.127E-01
RMM:  57    -0.776993761701E+03    0.22787E-04   -0.17528E-07  2075   0.160E-03    0.126E-01
RMM:  58    -0.776993753294E+03    0.84064E-05   -0.56942E-08  2025   0.739E-04    0.125E-01
RMM:  59    -0.776993748508E+03    0.47864E-05   -0.40200E-09   508   0.240E-04    0.125E-01
RMM:  60    -0.776993726077E+03    0.22431E-04   -0.31668E-07  2064   0.792E-04
 -----------------------------------------------------------------------------
|                                                                             |
|           W    W    AA    RRRRR   N    N  II  N    N   GGGG   !!!           |
|           W    W   A  A   R    R  NN   N  II  NN   N  G    G  !!!           |
|           W    W  A    A  R    R  N N  N  II  N N  N  G       !!!           |
|           W WW W  AAAAAA  RRRRR   N  N N  II  N  N N  G  GGG   !            |
|           WW  WW  A    A  R   R   N   NN  II  N   NN  G    G                |
|           W    W  A    A  R    R  N    N  II  N    N   GGGG   !!!           |
|                                                                             |
|     The electronic self-consistency was not achieved in the given           |
|     number of steps (NELM). The forces and other quantities evaluated       |
|     might not be reliable so examine the results carefully. If you find     |
|     spurious results, we suggest increasing NELM, if you were close to      |
|     convergence or switching to a different ALGO or adjusting the           |
|     density mixing parameters otherwise.                                    |
|                                                                             |
 -----------------------------------------------------------------------------

   1 F= -.77699373E+03 E0= -.77699373E+03  d E =-.776994E+03
 curvature:   0.00 expect dE= 0.000E+00 dE for cont linesearch  0.000E+00
 trial: gam= 0.00000 g(F)=  0.985E+01 g(S)=  0.368E+02 ort = 0.000E+00 (trialstep = 0.100E+01)
 search vector abs. value=  0.467E+02
 bond charge predicted
 -----------------------------------------------------------------------------
|                                                                             |
|           W    W    AA    RRRRR   N    N  II  N    N   GGGG   !!!           |
|           W    W   A  A   R    R  NN   N  II  NN   N  G    G  !!!           |
|           W    W  A    A  R    R  N N  N  II  N N  N  G       !!!           |
|           W WW W  AAAAAA  RRRRR   N  N N  II  N  N N  G  GGG   !            |
|           WW  WW  A    A  R   R   N   NN  II  N   NN  G    G                |
|           W    W  A    A  R    R  N    N  II  N    N   GGGG   !!!           |
|                                                                             |
|     Tetrahedron method does not include variations of the Fermi             |
|     occupations, so forces and stress will be inaccurate. We suggest        |
|     using a different smearing scheme ISMEAR = 1 or 2 for metals in         |
|     relaxations.                                                            |
|                                                                             |
 -----------------------------------------------------------------------------

       N       E                     dE             d eps       ncg     rms          rms(c)
DAV:   1    -0.794510690009E+03   -0.17517E+02   -0.20960E+03  4045   0.955E+01    0.299E+01
RMM:   2    -0.787208663121E+03    0.73020E+01   -0.87505E+01  3729   0.195E+01    0.131E+01
RMM:   3    -0.782648649172E+03    0.45600E+01   -0.17218E+01  3735   0.827E+00    0.712E+00
RMM:   4    -0.782139864134E+03    0.50879E+00   -0.45029E+00  3739   0.403E+00    0.329E+00
RMM:   5    -0.782172027035E+03   -0.32163E-01   -0.50641E-01  3821   0.144E+00    0.121E+00
RMM:   6    -0.782183125331E+03   -0.11098E-01   -0.11605E-01  3797   0.636E-01    0.357E-01
RMM:   7    -0.782184633110E+03   -0.15078E-02   -0.26125E-02  3756   0.298E-01    0.589E-02
RMM:   8    -0.782185097888E+03   -0.46478E-03   -0.64866E-03  3878   0.144E-01    0.515E-02
RMM:   9    -0.782185216870E+03   -0.11898E-03   -0.12917E-03  3777   0.652E-02    0.232E-02
RMM:  10    -0.782185239060E+03   -0.22190E-04   -0.32120E-04  3888   0.309E-02    0.717E-03
RMM:  11    -0.782185244998E+03   -0.59371E-05   -0.68529E-05  3807   0.141E-02    0.301E-03
RMM:  12    -0.782185246150E+03   -0.11525E-05   -0.14145E-05  3363   0.659E-03    0.244E-03
RMM:  13    -0.782185246767E+03   -0.61646E-06   -0.35338E-06  2759   0.325E-03
   2 F= -.78218525E+03 E0= -.78218525E+03  d E =-.519152E+01
 trial-energy change:   -5.191521  1 .order   -5.271584  -46.652777   36.109609
 step:   0.5623(harm=  0.5637)  dis= 0.05838  next Energy=  -790.095149 (dE=-0.131E+02)
 bond charge predicted
 -----------------------------------------------------------------------------
|                                                                             |
|           W    W    AA    RRRRR   N    N  II  N    N   GGGG   !!!           |
|           W    W   A  A   R    R  NN   N  II  NN   N  G    G  !!!           |
|           W    W  A    A  R    R  N N  N  II  N N  N  G       !!!           |
|           W WW W  AAAAAA  RRRRR   N  N N  II  N  N N  G  GGG   !            |
|           WW  WW  A    A  R   R   N   NN  II  N   NN  G    G                |
|           W    W  A    A  R    R  N    N  II  N    N   GGGG   !!!           |
|                                                                             |
|     Tetrahedron method does not include variations of the Fermi             |
|     occupations, so forces and stress will be inaccurate. We suggest        |
|     using a different smearing scheme ISMEAR = 1 or 2 for metals in         |
|     relaxations.                                                            |
|                                                                             |
 -----------------------------------------------------------------------------

       N       E                     dE             d eps       ncg     rms          rms(c)
DAV:   1    -0.792552569101E+03   -0.10367E+02   -0.41247E+02  4029   0.424E+01    0.107E+01
RMM:   2    -0.790907756166E+03    0.16448E+01   -0.13965E+01  3728   0.776E+00    0.575E+00
RMM:   3    -0.789884809693E+03    0.10229E+01   -0.42197E+00  3729   0.381E+00    0.155E+00
RMM:   4    -0.789904593143E+03   -0.19783E-01   -0.48533E-01  3747   0.147E+00    0.112E+00
RMM:   5    -0.789908535485E+03   -0.39423E-02   -0.10308E-01  3762   0.632E-01    0.259E-01
RMM:   6    -0.789907578789E+03    0.95670E-03   -0.30603E-02  3756   0.326E-01    0.379E-01
RMM:   7    -0.789908237996E+03   -0.65921E-03   -0.53198E-03  3794   0.141E-01    0.727E-02
RMM:   8    -0.789907911875E+03    0.32612E-03   -0.13701E-03  3755   0.672E-02    0.722E-02
RMM:   9    -0.789907913562E+03   -0.16875E-05   -0.30265E-04  3840   0.313E-02    0.351E-02
RMM:  10    -0.789907933425E+03   -0.19863E-04   -0.56147E-05  3855   0.136E-02    0.302E-03
RMM:  11    -0.789907934339E+03   -0.91384E-06   -0.12489E-05  3466   0.603E-03    0.971E-03
RMM:  12    -0.789907934474E+03   -0.13449E-06   -0.21425E-06  2530   0.270E-03
   3 F= -.78990793E+03 E0= -.78990793E+03  d E =-.129142E+02
 curvature:  -0.28 expect dE=-0.378E+01 dE for cont linesearch -0.671E-03
 trial: gam= 0.28055 g(F)=  0.111E+02 g(S)=  0.237E+01 ort = 0.333E+00 (trialstep = 0.912E+00)
 search vector abs. value=  0.173E+02
 bond charge predicted
 -----------------------------------------------------------------------------
|                                                                             |
|           W    W    AA    RRRRR   N    N  II  N    N   GGGG   !!!           |
|           W    W   A  A   R    R  NN   N  II  NN   N  G    G  !!!           |
|           W    W  A    A  R    R  N N  N  II  N N  N  G       !!!           |
|           W WW W  AAAAAA  RRRRR   N  N N  II  N  N N  G  GGG   !            |
|           WW  WW  A    A  R   R   N   NN  II  N   NN  G    G                |
|           W    W  A    A  R    R  N    N  II  N    N   GGGG   !!!           |
|                                                                             |
|     Tetrahedron method does not include variations of the Fermi             |
|     occupations, so forces and stress will be inaccurate. We suggest        |
|     using a different smearing scheme ISMEAR = 1 or 2 for metals in         |
|     relaxations.                                                            |
|                                                                             |
 -----------------------------------------------------------------------------

       N       E                     dE             d eps       ncg     rms          rms(c)
DAV:   1    -0.791927689655E+03   -0.20198E+01   -0.50062E+02  4158   0.490E+01    0.741E+00
RMM:   2    -0.791743865959E+03    0.18382E+00   -0.99866E+00  3728   0.653E+00    0.411E+00
RMM:   3    -0.791500558469E+03    0.24331E+00   -0.16630E+00  3735   0.253E+00    0.170E+00
RMM:   4    -0.791492802346E+03    0.77561E-02   -0.38295E-01  3767   0.110E+00    0.637E-01
RMM:   5    -0.791495878749E+03   -0.30764E-02   -0.52693E-02  3808   0.442E-01    0.203E-01
RMM:   6    -0.791497093072E+03   -0.12143E-02   -0.12766E-02  3816   0.203E-01    0.772E-02
RMM:   7    -0.791497188667E+03   -0.95595E-04   -0.27474E-03  3859   0.922E-02    0.237E-02
RMM:   8    -0.791497328863E+03   -0.14020E-03   -0.61466E-04  3879   0.417E-02    0.119E-02
RMM:   9    -0.791497263383E+03    0.65480E-04   -0.12832E-04  3801   0.194E-02    0.279E-03
RMM:  10    -0.791497270054E+03   -0.66703E-05   -0.27433E-05  3483   0.860E-03    0.173E-03
RMM:  11    -0.791497278118E+03   -0.80646E-05   -0.70369E-06  3005   0.432E-03    0.135E-03
RMM:  12    -0.791497273077E+03    0.50417E-05   -0.16417E-06  2469   0.207E-03    0.424E-04
RMM:  13    -0.791497272975E+03    0.10122E-06   -0.39760E-07  1971   0.103E-03
   4 F= -.79149727E+03 E0= -.79149727E+03  d E =-.158934E+01
 trial-energy change:   -1.589339  1 .order   -1.706648  -12.331923    8.918627
 step:   0.5221(harm=  0.5295)  dis= 0.03455  next Energy=  -793.414138 (dE=-0.351E+01)
 bond charge predicted
 -----------------------------------------------------------------------------
|                                                                             |
|           W    W    AA    RRRRR   N    N  II  N    N   GGGG   !!!           |
|           W    W   A  A   R    R  NN   N  II  NN   N  G    G  !!!           |
|           W    W  A    A  R    R  N N  N  II  N N  N  G       !!!           |
|           W WW W  AAAAAA  RRRRR   N  N N  II  N  N N  G  GGG   !            |
|           WW  WW  A    A  R   R   N   NN  II  N   NN  G    G                |
|           W    W  A    A  R    R  N    N  II  N    N   GGGG   !!!           |
|                                                                             |
|     Tetrahedron method does not include variations of the Fermi             |
|     occupations, so forces and stress will be inaccurate. We suggest        |
|     using a different smearing scheme ISMEAR = 1 or 2 for metals in         |
|     relaxations.                                                            |
|                                                                             |
 -----------------------------------------------------------------------------

       N       E                     dE             d eps       ncg     rms          rms(c)
DAV:   1    -0.793542233090E+03   -0.20450E+01   -0.92554E+01  4124   0.210E+01    0.312E+00
RMM:   2    -0.793453774340E+03    0.88459E-01   -0.15890E+00  3728   0.266E+00    0.178E+00
RMM:   3    -0.793402343573E+03    0.51431E-01   -0.35168E-01  3728   0.112E+00    0.506E-01
RMM:   4    -0.793405518779E+03   -0.31752E-02   -0.54811E-02  3798   0.440E-01    0.250E-01
RMM:   5    -0.793406474385E+03   -0.95561E-03   -0.96138E-03  3773   0.190E-01    0.734E-02
RMM:   6    -0.793406408199E+03    0.66185E-04   -0.21148E-03  3802   0.840E-02    0.520E-02
RMM:   7    -0.793406628124E+03   -0.21993E-03   -0.47161E-04  3784   0.405E-02    0.109E-02
RMM:   8    -0.793406594113E+03    0.34012E-04   -0.11185E-04  3906   0.179E-02    0.724E-03
RMM:   9    -0.793406622996E+03   -0.28883E-04   -0.22122E-05  3577   0.823E-03    0.180E-03
RMM:  10    -0.793406622721E+03    0.27464E-06   -0.49647E-06  2911   0.380E-03
   5 F= -.79340662E+03 E0= -.79340662E+03  d E =-.349869E+01
 curvature:  -0.34 expect dE=-0.229E+00 dE for cont linesearch -0.289E-03
 trial: gam= 0.01375 g(F)=  0.657E+00 g(S)=  0.202E-01 ort = 0.121E+00 (trialstep = 0.834E+00)
 search vector abs. value=  0.683E+00
 bond charge predicted
 -----------------------------------------------------------------------------
|                                                                             |
|           W    W    AA    RRRRR   N    N  II  N    N   GGGG   !!!           |
|           W    W   A  A   R    R  NN   N  II  NN   N  G    G  !!!           |
|           W    W  A    A  R    R  N N  N  II  N N  N  G       !!!           |
|           W WW W  AAAAAA  RRRRR   N  N N  II  N  N N  G  GGG   !            |
|           WW  WW  A    A  R   R   N   NN  II  N   NN  G    G                |
|           W    W  A    A  R    R  N    N  II  N    N   GGGG   !!!           |
|                                                                             |
|     Tetrahedron method does not include variations of the Fermi             |
|     occupations, so forces and stress will be inaccurate. We suggest        |
|     using a different smearing scheme ISMEAR = 1 or 2 for metals in         |
|     relaxations.                                                            |
|                                                                             |
 -----------------------------------------------------------------------------

       N       E                     dE             d eps       ncg     rms          rms(c)
DAV:   1    -0.793807705791E+03   -0.40108E+00   -0.21945E+01  3941   0.998E+00    0.141E+00
RMM:   2    -0.793753306348E+03    0.54399E-01   -0.41412E-01  3728   0.144E+00    0.725E-01
RMM:   3    -0.793737300886E+03    0.16005E-01   -0.81379E-02  3730   0.551E-01    0.255E-01
RMM:   4    -0.793736528189E+03    0.77270E-03   -0.13840E-02  3756   0.220E-01    0.975E-02
RMM:   5    -0.793736503135E+03    0.25053E-04   -0.21011E-03  3787   0.878E-02    0.275E-02
RMM:   6    -0.793736629673E+03   -0.12654E-03   -0.41523E-04  3804   0.367E-02    0.137E-02
RMM:   7    -0.793736674729E+03   -0.45055E-04   -0.79158E-05  3793   0.166E-02    0.485E-03
RMM:   8    -0.793736719618E+03   -0.44889E-04   -0.18778E-05  3716   0.754E-03    0.166E-03
RMM:   9    -0.793736700155E+03    0.19463E-04   -0.43277E-06  2856   0.362E-03    0.790E-04
RMM:  10    -0.793736710407E+03   -0.10252E-04   -0.94315E-07  2336   0.167E-03    0.332E-04
RMM:  11    -0.793736710825E+03   -0.41815E-06   -0.22280E-07  1970   0.826E-04
   6 F= -.79373671E+03 E0= -.79373671E+03  d E =-.330088E+00
 trial-energy change:   -0.330088  1 .order   -0.269239   -0.566146    0.027667
 step:   0.8100(harm=  0.7955)  dis= 0.01679  next Energy=  -793.737113 (dE=-0.330E+00)
 bond charge predicted
 -----------------------------------------------------------------------------
|                                                                             |
|           W    W    AA    RRRRR   N    N  II  N    N   GGGG   !!!           |
|           W    W   A  A   R    R  NN   N  II  NN   N  G    G  !!!           |
|           W    W  A    A  R    R  N N  N  II  N N  N  G       !!!           |
|           W WW W  AAAAAA  RRRRR   N  N N  II  N  N N  G  GGG   !            |
|           WW  WW  A    A  R   R   N   NN  II  N   NN  G    G                |
|           W    W  A    A  R    R  N    N  II  N    N   GGGG   !!!           |
|                                                                             |
|     Tetrahedron method does not include variations of the Fermi             |
|     occupations, so forces and stress will be inaccurate. We suggest        |
|     using a different smearing scheme ISMEAR = 1 or 2 for metals in         |
|     relaxations.                                                            |
|                                                                             |
 -----------------------------------------------------------------------------

       N       E                     dE             d eps       ncg     rms          rms(c)
DAV:   1    -0.793734102022E+03    0.26084E-02   -0.18619E-02  4216   0.291E-01    0.420E-02
RMM:   2    -0.793734890780E+03   -0.78876E-03   -0.35234E-04  3728   0.418E-02    0.210E-02
RMM:   3    -0.793735046969E+03   -0.15619E-03   -0.68666E-05  3731   0.160E-02    0.771E-03
RMM:   4    -0.793735088370E+03   -0.41401E-04   -0.12690E-05  3741   0.651E-03    0.281E-03
RMM:   5    -0.793735090543E+03   -0.21731E-05   -0.18811E-06  2386   0.261E-03    0.744E-04
RMM:   6    -0.793735088376E+03    0.21674E-05   -0.32815E-07  2209   0.104E-03    0.395E-04
RMM:   7    -0.793735087409E+03    0.96679E-06   -0.63181E-08  1351   0.518E-04
   7 F= -.79373509E+03 E0= -.79373509E+03  d E =-.328465E+00
 curvature:  -0.34 expect dE=-0.699E-01 dE for cont linesearch -0.826E-04
 trial: gam= 0.32119 g(F)=  0.162E+00 g(S)=  0.410E-01 ort =-0.128E-01 (trialstep = 0.830E+00)
 search vector abs. value=  0.265E+00
 bond charge predicted
 -----------------------------------------------------------------------------
|                                                                             |
|           W    W    AA    RRRRR   N    N  II  N    N   GGGG   !!!           |
|           W    W   A  A   R    R  NN   N  II  NN   N  G    G  !!!           |
|           W    W  A    A  R    R  N N  N  II  N N  N  G       !!!           |
|           W WW W  AAAAAA  RRRRR   N  N N  II  N  N N  G  GGG   !            |
|           WW  WW  A    A  R   R   N   NN  II  N   NN  G    G                |
|           W    W  A    A  R    R  N    N  II  N    N   GGGG   !!!           |
|                                                                             |
|     Tetrahedron method does not include variations of the Fermi             |
|     occupations, so forces and stress will be inaccurate. We suggest        |
|     using a different smearing scheme ISMEAR = 1 or 2 for metals in         |
|     relaxations.                                                            |
|                                                                             |
 -----------------------------------------------------------------------------

       N       E                     dE             d eps       ncg     rms          rms(c)
DAV:   1    -0.793829959203E+03   -0.94871E-01   -0.80674E+00  3828   0.627E+00    0.797E-01
RMM:   2    -0.793834526052E+03   -0.45668E-02   -0.13444E-01  3728   0.794E-01    0.419E-01
RMM:   3    -0.793834822370E+03   -0.29632E-03   -0.23522E-02  3735   0.298E-01    0.213E-01
RMM:   4    -0.793834942684E+03   -0.12031E-03   -0.50992E-03  3799   0.130E-01    0.730E-02
RMM:   5    -0.793834863953E+03    0.78731E-04   -0.72089E-04  3792   0.534E-02    0.192E-02
RMM:   6    -0.793834877847E+03   -0.13894E-04   -0.16900E-04  3780   0.239E-02    0.836E-03
RMM:   7    -0.793834749918E+03    0.12793E-03   -0.36117E-05  3795   0.112E-02    0.340E-03
RMM:   8    -0.793834775269E+03   -0.25352E-04   -0.81118E-06  3164   0.493E-03    0.841E-04
RMM:   9    -0.793834769135E+03    0.61349E-05   -0.19162E-06  2505   0.236E-03    0.553E-04
RMM:  10    -0.793834761744E+03    0.73905E-05   -0.40522E-07  2201   0.108E-03    0.271E-04
RMM:  11    -0.793834768062E+03   -0.63181E-05   -0.10429E-07  1609   0.587E-04    0.141E-04
RMM:  12    -0.793834766925E+03    0.11368E-05   -0.13608E-08  1020   0.391E-04    0.539E-05
RMM:  13    -0.793834766101E+03    0.82425E-06   -0.45727E-10   841   0.357E-04
   8 F= -.79383477E+03 E0= -.79383477E+03  d E =-.996787E-01
 trial-energy change:   -0.099679  1 .order   -0.106472   -0.164705   -0.048240
 step:   1.1731(harm=  1.1731)  dis= 0.01143  next Energy=  -793.851550 (dE=-0.116E+00)
 bond charge predicted
 -----------------------------------------------------------------------------
|                                                                             |
|           W    W    AA    RRRRR   N    N  II  N    N   GGGG   !!!           |
|           W    W   A  A   R    R  NN   N  II  NN   N  G    G  !!!           |
|           W    W  A    A  R    R  N N  N  II  N N  N  G       !!!           |
|           W WW W  AAAAAA  RRRRR   N  N N  II  N  N N  G  GGG   !            |
|           WW  WW  A    A  R   R   N   NN  II  N   NN  G    G                |
|           W    W  A    A  R    R  N    N  II  N    N   GGGG   !!!           |
|                                                                             |
|     Tetrahedron method does not include variations of the Fermi             |
|     occupations, so forces and stress will be inaccurate. We suggest        |
|     using a different smearing scheme ISMEAR = 1 or 2 for metals in         |
|     relaxations.                                                            |
|                                                                             |
 -----------------------------------------------------------------------------

       N       E                     dE             d eps       ncg     rms          rms(c)
DAV:   1    -0.793836726302E+03   -0.19594E-02   -0.13856E+00  3930   0.260E+00    0.332E-01
RMM:   2    -0.793842005792E+03   -0.52795E-02   -0.23090E-02  3728   0.329E-01    0.175E-01
RMM:   3    -0.793842186009E+03   -0.18022E-03   -0.39820E-03  3738   0.123E-01    0.894E-02
RMM:   4    -0.793842244794E+03   -0.58785E-04   -0.89044E-04  3789   0.544E-02    0.286E-02
RMM:   5    -0.793842185402E+03    0.59392E-04   -0.12682E-04  3806   0.220E-02    0.797E-03
RMM:   6    -0.793842179544E+03    0.58578E-05   -0.28423E-05  3753   0.982E-03    0.325E-03
RMM:   7    -0.793842135176E+03    0.44369E-04   -0.58503E-06  3073   0.453E-03    0.136E-03
RMM:   8    -0.793842144581E+03   -0.94051E-05   -0.13647E-06  2410   0.202E-03    0.340E-04
RMM:   9    -0.793842142138E+03    0.24427E-05   -0.29822E-07  2088   0.950E-04    0.203E-04
RMM:  10    -0.793842140064E+03    0.20736E-05   -0.65958E-08  1466   0.534E-04    0.805E-05
RMM:  11    -0.793842142001E+03   -0.19369E-05   -0.65027E-09   929   0.381E-04    0.369E-05
RMM:  12    -0.793842141833E+03    0.16856E-06   -0.64582E-11   811   0.363E-04
   9 F= -.79384214E+03 E0= -.79384214E+03  d E =-.107054E+00
 curvature:  -0.78 expect dE=-0.604E-01 dE for cont linesearch -0.183E-05
 trial: gam= 0.33248 g(F)=  0.587E-01 g(S)=  0.184E-01 ort =-0.787E-03 (trialstep = 0.898E+00)
 search vector abs. value=  0.106E+00
 bond charge predicted
 -----------------------------------------------------------------------------
|                                                                             |
|           W    W    AA    RRRRR   N    N  II  N    N   GGGG   !!!           |
|           W    W   A  A   R    R  NN   N  II  NN   N  G    G  !!!           |
|           W    W  A    A  R    R  N N  N  II  N N  N  G       !!!           |
|           W WW W  AAAAAA  RRRRR   N  N N  II  N  N N  G  GGG   !            |
|           WW  WW  A    A  R   R   N   NN  II  N   NN  G    G                |
|           W    W  A    A  R    R  N    N  II  N    N   GGGG   !!!           |
|                                                                             |
|     Tetrahedron method does not include variations of the Fermi             |
|     occupations, so forces and stress will be inaccurate. We suggest        |
|     using a different smearing scheme ISMEAR = 1 or 2 for metals in         |
|     relaxations.                                                            |
|                                                                             |
 -----------------------------------------------------------------------------

       N       E                     dE             d eps       ncg     rms          rms(c)
DAV:   1    -0.793883753655E+03   -0.41612E-01   -0.51846E+00  3800   0.488E+00    0.628E-01
RMM:   2    -0.793876470311E+03    0.72833E-02   -0.75560E-02  3728   0.592E-01    0.359E-01
RMM:   3    -0.793876907149E+03   -0.43684E-03   -0.15868E-02  3728   0.237E-01    0.134E-01
RMM:   4    -0.793877190297E+03   -0.28315E-03   -0.27376E-03  3830   0.960E-02    0.501E-02
RMM:   5    -0.793877321537E+03   -0.13124E-03   -0.46887E-04  3758   0.415E-02    0.121E-02
RMM:   6    -0.793877258100E+03    0.63436E-04   -0.90989E-05  3793   0.174E-02    0.762E-03
RMM:   7    -0.793877281641E+03   -0.23540E-04   -0.19283E-05  3727   0.827E-03    0.146E-03
RMM:   8    -0.793877275554E+03    0.60862E-05   -0.44063E-06  2840   0.361E-03    0.825E-04
RMM:   9    -0.793877281941E+03   -0.63867E-05   -0.91251E-07  2349   0.166E-03    0.229E-04
RMM:  10    -0.793877280709E+03    0.12316E-05   -0.20268E-07  1962   0.798E-04    0.847E-05
RMM:  11    -0.793877280537E+03    0.17234E-06   -0.39983E-08  1281   0.469E-04
  10 F= -.79387728E+03 E0= -.79387728E+03  d E =-.351387E-01
 trial-energy change:   -0.035139  1 .order   -0.035141   -0.069057   -0.001224
 step:   0.9144(harm=  0.9144)  dis= 0.00880  next Energy=  -793.877293 (dE=-0.352E-01)
 bond charge predicted
 -----------------------------------------------------------------------------
|                                                                             |
|           W    W    AA    RRRRR   N    N  II  N    N   GGGG   !!!           |
|           W    W   A  A   R    R  NN   N  II  NN   N  G    G  !!!           |
|           W    W  A    A  R    R  N N  N  II  N N  N  G       !!!           |
|           W WW W  AAAAAA  RRRRR   N  N N  II  N  N N  G  GGG   !            |
|           WW  WW  A    A  R   R   N   NN  II  N   NN  G    G                |
|           W    W  A    A  R    R  N    N  II  N    N   GGGG   !!!           |
|                                                                             |
|     Tetrahedron method does not include variations of the Fermi             |
|     occupations, so forces and stress will be inaccurate. We suggest        |
|     using a different smearing scheme ISMEAR = 1 or 2 for metals in         |
|     relaxations.                                                            |
|                                                                             |
 -----------------------------------------------------------------------------

       N       E                     dE             d eps       ncg     rms          rms(c)
DAV:   1    -0.793877356075E+03   -0.75366E-04   -0.16913E-03  4270   0.881E-02    0.113E-02
RMM:   2    -0.793877262988E+03    0.93087E-04   -0.24828E-05  3728   0.107E-02    0.648E-03
RMM:   3    -0.793877287051E+03   -0.24063E-04   -0.52609E-06  3225   0.430E-03    0.242E-03
RMM:   4    -0.793877290287E+03   -0.32359E-05   -0.83153E-07  2278   0.171E-03    0.901E-04
RMM:   5    -0.793877292550E+03   -0.22627E-05   -0.15788E-07  2040   0.729E-04    0.202E-04
RMM:   6    -0.793877291302E+03    0.12479E-05   -0.17297E-08   914   0.361E-04    0.109E-04
RMM:   7    -0.793877291093E+03    0.20881E-06   -0.24420E-10   617   0.313E-04
  11 F= -.79387729E+03 E0= -.79387729E+03  d E =-.351493E-01
 curvature:  -0.63 expect dE=-0.165E-01 dE for cont linesearch -0.802E-09
 trial: gam= 0.33866 g(F)=  0.230E-01 g(S)=  0.317E-02 ort = 0.116E-04 (trialstep = 0.901E+00)
 search vector abs. value=  0.383E-01
 bond charge predicted
 -----------------------------------------------------------------------------
|                                                                             |
|           W    W    AA    RRRRR   N    N  II  N    N   GGGG   !!!           |
|           W    W   A  A   R    R  NN   N  II  NN   N  G    G  !!!           |
|           W    W  A    A  R    R  N N  N  II  N N  N  G       !!!           |
|           W WW W  AAAAAA  RRRRR   N  N N  II  N  N N  G  GGG   !            |
|           WW  WW  A    A  R   R   N   NN  II  N   NN  G    G                |
|           W    W  A    A  R    R  N    N  II  N    N   GGGG   !!!           |
|                                                                             |
|     Tetrahedron method does not include variations of the Fermi             |
|     occupations, so forces and stress will be inaccurate. We suggest        |
|     using a different smearing scheme ISMEAR = 1 or 2 for metals in         |
|     relaxations.                                                            |
|                                                                             |
 -----------------------------------------------------------------------------

       N       E                     dE             d eps       ncg     rms          rms(c)
DAV:   1    -0.793894280814E+03   -0.16990E-01   -0.14360E+00  3880   0.260E+00    0.373E-01
RMM:   2    -0.793890623433E+03    0.36574E-02   -0.24166E-02  3728   0.343E-01    0.209E-01
RMM:   3    -0.793888486635E+03    0.21368E-02   -0.56682E-03  3728   0.144E-01    0.528E-02
RMM:   4    -0.793888613244E+03   -0.12661E-03   -0.79606E-04  3802   0.558E-02    0.243E-02
RMM:   5    -0.793888550929E+03    0.62316E-04   -0.14587E-04  3779   0.240E-02    0.747E-03
RMM:   6    -0.793888633790E+03   -0.82861E-04   -0.29145E-05  3766   0.103E-02    0.444E-03
RMM:   7    -0.793888642589E+03   -0.87991E-05   -0.71302E-06  3262   0.502E-03    0.115E-03
RMM:   8    -0.793888639405E+03    0.31842E-05   -0.13771E-06  2365   0.211E-03    0.610E-04
RMM:   9    -0.793888636956E+03    0.24490E-05   -0.32342E-07  2218   0.103E-03    0.152E-04
RMM:  10    -0.793888637489E+03   -0.53292E-06   -0.76079E-08  1563   0.559E-04
  12 F= -.79388864E+03 E0= -.79388864E+03  d E =-.113464E-01
 trial-energy change:   -0.011346  1 .order   -0.004822   -0.023560    0.013916
 step:   0.7188(harm=  0.5667)  dis= 0.00305  next Energy=  -793.889993 (dE=-0.127E-01)
 bond charge predicted
 -----------------------------------------------------------------------------
|                                                                             |
|           W    W    AA    RRRRR   N    N  II  N    N   GGGG   !!!           |
|           W    W   A  A   R    R  NN   N  II  NN   N  G    G  !!!           |
|           W    W  A    A  R    R  N N  N  II  N N  N  G       !!!           |
|           W WW W  AAAAAA  RRRRR   N  N N  II  N  N N  G  GGG   !            |
|           WW  WW  A    A  R   R   N   NN  II  N   NN  G    G                |
|           W    W  A    A  R    R  N    N  II  N    N   GGGG   !!!           |
|                                                                             |
|     Tetrahedron method does not include variations of the Fermi             |
|     occupations, so forces and stress will be inaccurate. We suggest        |
|     using a different smearing scheme ISMEAR = 1 or 2 for metals in         |
|     relaxations.                                                            |
|                                                                             |
 -----------------------------------------------------------------------------

       N       E                     dE             d eps       ncg     rms          rms(c)
DAV:   1    -0.793888547434E+03    0.89522E-04   -0.59421E-02  3854   0.526E-01    0.763E-02
RMM:   2    -0.793889059270E+03   -0.51184E-03   -0.98306E-04  3728   0.694E-02    0.430E-02
RMM:   3    -0.793889335466E+03   -0.27620E-03   -0.23614E-04  3728   0.294E-02    0.104E-02
RMM:   4    -0.793889319060E+03    0.16406E-04   -0.32632E-05  3800   0.114E-02    0.493E-03
RMM:   5    -0.793889328807E+03   -0.97467E-05   -0.60219E-06  3440   0.488E-03    0.152E-03
RMM:   6    -0.793889314471E+03    0.14336E-04   -0.11854E-06  2333   0.208E-03    0.916E-04
RMM:   7    -0.793889313409E+03    0.10626E-05   -0.25970E-07  2264   0.963E-04    0.186E-04
RMM:   8    -0.793889313705E+03   -0.29692E-06   -0.45308E-08  1328   0.473E-04
  13 F= -.79388931E+03 E0= -.79388931E+03  d E =-.120226E-01
 curvature:  -0.33 expect dE=-0.405E-02 dE for cont linesearch -0.466E-03
 ZBRENT: interpolating
 opt :   0.5610  next Energy=  -793.889894 (dE=-0.126E-01)
 bond charge predicted
 -----------------------------------------------------------------------------
|                                                                             |
|           W    W    AA    RRRRR   N    N  II  N    N   GGGG   !!!           |
|           W    W   A  A   R    R  NN   N  II  NN   N  G    G  !!!           |
|           W    W  A    A  R    R  N N  N  II  N N  N  G       !!!           |
|           W WW W  AAAAAA  RRRRR   N  N N  II  N  N N  G  GGG   !            |
|           WW  WW  A    A  R   R   N   NN  II  N   NN  G    G                |
|           W    W  A    A  R    R  N    N  II  N    N   GGGG   !!!           |
|                                                                             |
|     Tetrahedron method does not include variations of the Fermi             |
|     occupations, so forces and stress will be inaccurate. We suggest        |
|     using a different smearing scheme ISMEAR = 1 or 2 for metals in         |
|     relaxations.                                                            |
|                                                                             |
 -----------------------------------------------------------------------------

       N       E                     dE             d eps       ncg     rms          rms(c)
DAV:   1    -0.793888038588E+03    0.12748E-02   -0.44403E-02  3924   0.455E-01    0.657E-02
RMM:   2    -0.793888468121E+03   -0.42953E-03   -0.73750E-04  3728   0.601E-02    0.371E-02
RMM:   3    -0.793888715820E+03   -0.24770E-03   -0.17798E-04  3728   0.254E-02    0.898E-03
RMM:   4    -0.793888697276E+03    0.18544E-04   -0.24347E-05  3798   0.983E-03    0.431E-03
RMM:   5    -0.793888707176E+03   -0.99002E-05   -0.46383E-06  3108   0.425E-03    0.137E-03
RMM:   6    -0.793888694714E+03    0.12462E-04   -0.88852E-07  2306   0.180E-03    0.803E-04
RMM:   7    -0.793888693739E+03    0.97579E-06   -0.19928E-07  2190   0.845E-04
  14 F= -.79388869E+03 E0= -.79388869E+03  d E =-.114026E-01
 curvature:  -0.41 expect dE=-0.272E-02 dE for cont linesearch -0.115E-05
 trial: gam= 0.26940 g(F)=  0.571E-02 g(S)=  0.900E-03 ort =-0.328E-03 (trialstep = 0.833E+00)
 search vector abs. value=  0.921E-02
 bond charge predicted
 -----------------------------------------------------------------------------
|                                                                             |
|           W    W    AA    RRRRR   N    N  II  N    N   GGGG   !!!           |
|           W    W   A  A   R    R  NN   N  II  NN   N  G    G  !!!           |
|           W    W  A    A  R    R  N N  N  II  N N  N  G       !!!           |
|           W WW W  AAAAAA  RRRRR   N  N N  II  N  N N  G  GGG   !            |
|           WW  WW  A    A  R   R   N   NN  II  N   NN  G    G                |
|           W    W  A    A  R    R  N    N  II  N    N   GGGG   !!!           |
|                                                                             |
|     Tetrahedron method does not include variations of the Fermi             |
|     occupations, so forces and stress will be inaccurate. We suggest        |
|     using a different smearing scheme ISMEAR = 1 or 2 for metals in         |
|     relaxations.                                                            |
|                                                                             |
 -----------------------------------------------------------------------------

       N       E                     dE             d eps       ncg     rms          rms(c)
DAV:   1    -0.793892167329E+03   -0.34726E-02   -0.25186E-01  3890   0.109E+00    0.144E-01
RMM:   2    -0.793891858436E+03    0.30889E-03   -0.46378E-03  3728   0.149E-01    0.782E-02
RMM:   3    -0.793891360181E+03    0.49825E-03   -0.95401E-04  3728   0.594E-02    0.263E-02
RMM:   4    -0.793891344885E+03    0.15296E-04   -0.13898E-04  3786   0.236E-02    0.114E-02
RMM:   5    -0.793891295698E+03    0.49188E-04   -0.26473E-05  3771   0.102E-02    0.330E-03
RMM:   6    -0.793891327387E+03   -0.31689E-04   -0.51893E-06  3020   0.433E-03    0.171E-03
RMM:   7    -0.793891329028E+03   -0.16409E-05   -0.10911E-06  2336   0.197E-03    0.547E-04
RMM:   8    -0.793891328320E+03    0.70771E-06   -0.22566E-07  2207   0.872E-04
  15 F= -.79389133E+03 E0= -.79389133E+03  d E =-.263458E-02
 trial-energy change:   -0.002635  1 .order   -0.002436   -0.005436    0.000564
 step:   0.7672(harm=  0.7551)  dis= 0.00195  next Energy=  -793.891351 (dE=-0.266E-02)
 bond charge predicted
 -----------------------------------------------------------------------------
|                                                                             |
|           W    W    AA    RRRRR   N    N  II  N    N   GGGG   !!!           |
|           W    W   A  A   R    R  NN   N  II  NN   N  G    G  !!!           |
|           W    W  A    A  R    R  N N  N  II  N N  N  G       !!!           |
|           W WW W  AAAAAA  RRRRR   N  N N  II  N  N N  G  GGG   !            |
|           WW  WW  A    A  R   R   N   NN  II  N   NN  G    G                |
|           W    W  A    A  R    R  N    N  II  N    N   GGGG   !!!           |
|                                                                             |
|     Tetrahedron method does not include variations of the Fermi             |
|     occupations, so forces and stress will be inaccurate. We suggest        |
|     using a different smearing scheme ISMEAR = 1 or 2 for metals in         |
|     relaxations.                                                            |
|                                                                             |
 -----------------------------------------------------------------------------

       N       E                     dE             d eps       ncg     rms          rms(c)
DAV:   1    -0.793891282840E+03    0.46188E-04   -0.15616E-03  4072   0.862E-02    0.112E-02
RMM:   2    -0.793891299219E+03   -0.16379E-04   -0.29408E-05  3728   0.118E-02    0.595E-03
RMM:   3    -0.793891330712E+03   -0.31493E-04   -0.56431E-06  3552   0.460E-03    0.203E-03
RMM:   4    -0.793891333075E+03   -0.23628E-05   -0.79791E-07  2193   0.180E-03    0.861E-04
RMM:   5    -0.793891336817E+03   -0.37420E-05   -0.15206E-07  2072   0.738E-04    0.234E-04
RMM:   6    -0.793891334434E+03    0.23828E-05   -0.18207E-08   900   0.359E-04    0.107E-04
RMM:   7    -0.793891333826E+03    0.60830E-06   -0.11121E-09   589   0.310E-04
  16 F= -.79389133E+03 E0= -.79389133E+03  d E =-.264009E-02
 curvature:  -0.52 expect dE=-0.207E-02 dE for cont linesearch -0.136E-06
 trial: gam= 0.58306 g(F)=  0.379E-02 g(S)=  0.184E-03 ort =-0.490E-04 (trialstep = 0.820E+00)
 search vector abs. value=  0.705E-02
 bond charge predicted
 -----------------------------------------------------------------------------
|                                                                             |
|           W    W    AA    RRRRR   N    N  II  N    N   GGGG   !!!           |
|           W    W   A  A   R    R  NN   N  II  NN   N  G    G  !!!           |
|           W    W  A    A  R    R  N N  N  II  N N  N  G       !!!           |
|           W WW W  AAAAAA  RRRRR   N  N N  II  N  N N  G  GGG   !            |
|           WW  WW  A    A  R   R   N   NN  II  N   NN  G    G                |
|           W    W  A    A  R    R  N    N  II  N    N   GGGG   !!!           |
|                                                                             |
|     Tetrahedron method does not include variations of the Fermi             |
|     occupations, so forces and stress will be inaccurate. We suggest        |
|     using a different smearing scheme ISMEAR = 1 or 2 for metals in         |
|     relaxations.                                                            |
|                                                                             |
 -----------------------------------------------------------------------------

       N       E                     dE             d eps       ncg     rms          rms(c)
DAV:   1    -0.793889235977E+03    0.20985E-02   -0.16537E-01  3857   0.878E-01    0.109E-01
RMM:   2    -0.793888549600E+03    0.68638E-03   -0.29240E-03  3728   0.119E-01    0.600E-02
RMM:   3    -0.793889021508E+03   -0.47191E-03   -0.47659E-04  3731   0.446E-02    0.236E-02
RMM:   4    -0.793889120550E+03   -0.99041E-04   -0.86885E-05  3754   0.179E-02    0.793E-03
RMM:   5    -0.793889138136E+03   -0.17586E-04   -0.13325E-05  3764   0.750E-03    0.267E-03
RMM:   6    -0.793889119072E+03    0.19064E-04   -0.31152E-06  2694   0.331E-03    0.111E-03
RMM:   7    -0.793889125040E+03   -0.59681E-05   -0.59908E-07  2299   0.142E-03    0.536E-04
RMM:   8    -0.793889123319E+03    0.17205E-05   -0.13793E-07  1897   0.706E-04    0.104E-04
RMM:   9    -0.793889122741E+03    0.57858E-06   -0.19121E-08  1071   0.414E-04
  17 F= -.79388912E+03 E0= -.79388912E+03  d E =0.221108E-02
 trial-energy change:    0.002211  1 .order   -0.001721   -0.003233   -0.000210
 step:   0.8771(harm=  0.8771)  dis= 0.00170  next Energy=  -793.893063 (dE=-0.173E-02)
 bond charge predicted
 -----------------------------------------------------------------------------
|                                                                             |
|           W    W    AA    RRRRR   N    N  II  N    N   GGGG   !!!           |
|           W    W   A  A   R    R  NN   N  II  NN   N  G    G  !!!           |
|           W    W  A    A  R    R  N N  N  II  N N  N  G       !!!           |
|           W WW W  AAAAAA  RRRRR   N  N N  II  N  N N  G  GGG   !            |
|           WW  WW  A    A  R   R   N   NN  II  N   NN  G    G                |
|           W    W  A    A  R    R  N    N  II  N    N   GGGG   !!!           |
|                                                                             |
|     Tetrahedron method does not include variations of the Fermi             |
|     occupations, so forces and stress will be inaccurate. We suggest        |
|     using a different smearing scheme ISMEAR = 1 or 2 for metals in         |
|     relaxations.                                                            |
|                                                                             |
 -----------------------------------------------------------------------------

       N       E                     dE             d eps       ncg     rms          rms(c)
DAV:   1    -0.793888865376E+03    0.25794E-03   -0.78976E-04  4248   0.611E-02    0.801E-03
RMM:   2    -0.793888818216E+03    0.47160E-04   -0.14423E-05  3728   0.834E-03    0.448E-03
RMM:   3    -0.793888853786E+03   -0.35570E-04   -0.24564E-06  2451   0.316E-03    0.176E-03
RMM:   4    -0.793888860116E+03   -0.63297E-05   -0.36806E-07  2183   0.118E-03    0.603E-04
RMM:   5    -0.793888861672E+03   -0.15559E-05   -0.48412E-08  1285   0.517E-04    0.169E-04
RMM:   6    -0.793888860372E+03    0.13001E-05   -0.59192E-09   731   0.386E-04    0.407E-05
RMM:   7    -0.793888860164E+03    0.20783E-06   -0.55107E-10   553   0.369E-04
  18 F= -.79388886E+03 E0= -.79388886E+03  d E =0.247366E-02
 curvature:  -0.78 expect dE=-0.102E-02 dE for cont linesearch -0.603E-07
 trial: gam= 0.35246 g(F)=  0.111E-02 g(S)=  0.191E-03 ort =-0.233E-04 (trialstep = 0.832E+00)
 search vector abs. value=  0.216E-02
 bond charge predicted
 -----------------------------------------------------------------------------
|                                                                             |
|           W    W    AA    RRRRR   N    N  II  N    N   GGGG   !!!           |
|           W    W   A  A   R    R  NN   N  II  NN   N  G    G  !!!           |
|           W    W  A    A  R    R  N N  N  II  N N  N  G       !!!           |
|           W WW W  AAAAAA  RRRRR   N  N N  II  N  N N  G  GGG   !            |
|           WW  WW  A    A  R   R   N   NN  II  N   NN  G    G                |
|           W    W  A    A  R    R  N    N  II  N    N   GGGG   !!!           |
|                                                                             |
|     Tetrahedron method does not include variations of the Fermi             |
|     occupations, so forces and stress will be inaccurate. We suggest        |
|     using a different smearing scheme ISMEAR = 1 or 2 for metals in         |
|     relaxations.                                                            |
|                                                                             |
 -----------------------------------------------------------------------------

       N       E                     dE             d eps       ncg     rms          rms(c)
DAV:   1    -0.793886647788E+03    0.22126E-02   -0.61308E-02  3848   0.557E-01    0.764E-02
RMM:   2    -0.793887047345E+03   -0.39956E-03   -0.11881E-03  3728   0.723E-02    0.419E-02
RMM:   3    -0.793887249733E+03   -0.20239E-03   -0.20392E-04  3732   0.281E-02    0.158E-02
RMM:   4    -0.793887230473E+03    0.19261E-04   -0.28535E-05  3785   0.110E-02    0.447E-03
RMM:   5    -0.793887248483E+03   -0.18010E-04   -0.60007E-06  3254   0.483E-03    0.183E-03
RMM:   6    -0.793887238887E+03    0.95964E-05   -0.11786E-06  2326   0.210E-03    0.628E-04
RMM:   7    -0.793887239200E+03   -0.31303E-06   -0.25465E-07  2196   0.969E-04
  19 F= -.79388724E+03 E0= -.79388724E+03  d E =0.162096E-02
 trial-energy change:    0.001621  1 .order   -0.000152   -0.001075    0.000770
 step:   0.4844(harm=  0.4844)  dis= 0.00050  next Energy=  -793.889173 (dE=-0.313E-03)
 bond charge predicted
 -----------------------------------------------------------------------------
|                                                                             |
|           W    W    AA    RRRRR   N    N  II  N    N   GGGG   !!!           |
|           W    W   A  A   R    R  NN   N  II  NN   N  G    G  !!!           |
|           W    W  A    A  R    R  N N  N  II  N N  N  G       !!!           |
|           W WW W  AAAAAA  RRRRR   N  N N  II  N  N N  G  GGG   !            |
|           WW  WW  A    A  R   R   N   NN  II  N   NN  G    G                |
|           W    W  A    A  R    R  N    N  II  N    N   GGGG   !!!           |
|                                                                             |
|     Tetrahedron method does not include variations of the Fermi             |
|     occupations, so forces and stress will be inaccurate. We suggest        |
|     using a different smearing scheme ISMEAR = 1 or 2 for metals in         |
|     relaxations.                                                            |
|                                                                             |
 -----------------------------------------------------------------------------

       N       E                     dE             d eps       ncg     rms          rms(c)
DAV:   1    -0.793888381525E+03   -0.11426E-02   -0.11169E-02  3862   0.233E-01    0.316E-02
RMM:   2    -0.793888188568E+03    0.19296E-03   -0.20086E-04  3728   0.300E-02    0.176E-02
RMM:   3    -0.793888110651E+03    0.77917E-04   -0.33887E-05  3731   0.116E-02    0.665E-03
RMM:   4    -0.793888109864E+03    0.78774E-06   -0.48171E-06  3118   0.461E-03
  20 F= -.79388811E+03 E0= -.79388811E+03  d E =0.750300E-03
 curvature:  -0.40 expect dE=-0.423E-03 dE for cont linesearch -0.477E-05
 trial: gam= 0.91586 g(F)=  0.926E-03 g(S)=  0.119E-03 ort =-0.160E-03 (trialstep = 0.642E+00)
 search vector abs. value=  0.256E-02
 bond charge predicted
 -----------------------------------------------------------------------------
|                                                                             |
|           W    W    AA    RRRRR   N    N  II  N    N   GGGG   !!!           |
|           W    W   A  A   R    R  NN   N  II  NN   N  G    G  !!!           |
|           W    W  A    A  R    R  N N  N  II  N N  N  G       !!!           |
|           W WW W  AAAAAA  RRRRR   N  N N  II  N  N N  G  GGG   !            |
|           WW  WW  A    A  R   R   N   NN  II  N   NN  G    G                |
|           W    W  A    A  R    R  N    N  II  N    N   GGGG   !!!           |
|                                                                             |
|     Tetrahedron method does not include variations of the Fermi             |
|     occupations, so forces and stress will be inaccurate. We suggest        |
|     using a different smearing scheme ISMEAR = 1 or 2 for metals in         |
|     relaxations.                                                            |
|                                                                             |
 -----------------------------------------------------------------------------

       N       E                     dE             d eps       ncg     rms          rms(c)
DAV:   1    -0.793887669286E+03    0.44137E-03   -0.31881E-02  3848   0.395E-01    0.632E-02
RMM:   2    -0.793888228188E+03   -0.55890E-03   -0.58743E-04  3728   0.522E-02    0.324E-02
RMM:   3    -0.793888247055E+03   -0.18867E-04   -0.11114E-04  3730   0.205E-02    0.132E-02
RMM:   4    -0.793888211710E+03    0.35345E-04   -0.17043E-05  3763   0.812E-03    0.340E-03
RMM:   5    -0.793888208323E+03    0.33874E-05   -0.33116E-06  2701   0.341E-03    0.151E-03
RMM:   6    -0.793888209838E+03   -0.15149E-05   -0.61854E-07  2291   0.147E-03    0.409E-04
RMM:   7    -0.793888208538E+03    0.12995E-05   -0.12297E-07  1858   0.673E-04    0.155E-04
RMM:   8    -0.793888208355E+03    0.18362E-06   -0.14844E-08   976   0.385E-04
  21 F= -.79388821E+03 E0= -.79388821E+03  d E =-.984911E-04
 trial-energy change:   -0.000098  1 .order   -0.000362   -0.000577   -0.000146
 step:   0.8598(harm=  0.8598)  dis= 0.00129  next Energy=  -793.888496 (dE=-0.386E-03)
 bond charge predicted
 -----------------------------------------------------------------------------
|                                                                             |
|           W    W    AA    RRRRR   N    N  II  N    N   GGGG   !!!           |
|           W    W   A  A   R    R  NN   N  II  NN   N  G    G  !!!           |
|           W    W  A    A  R    R  N N  N  II  N N  N  G       !!!           |
|           W WW W  AAAAAA  RRRRR   N  N N  II  N  N N  G  GGG   !            |
|           WW  WW  A    A  R   R   N   NN  II  N   NN  G    G                |
|           W    W  A    A  R    R  N    N  II  N    N   GGGG   !!!           |
|                                                                             |
|     Tetrahedron method does not include variations of the Fermi             |
|     occupations, so forces and stress will be inaccurate. We suggest        |
|     using a different smearing scheme ISMEAR = 1 or 2 for metals in         |
|     relaxations.                                                            |
|                                                                             |
 -----------------------------------------------------------------------------

       N       E                     dE             d eps       ncg     rms          rms(c)
DAV:   1    -0.793887919438E+03    0.28910E-03   -0.36651E-03  3984   0.134E-01    0.213E-02
RMM:   2    -0.793888141238E+03   -0.22180E-03   -0.68106E-05  3728   0.178E-02    0.109E-02
RMM:   3    -0.793888143777E+03   -0.25389E-05   -0.12801E-05  3732   0.695E-03    0.450E-03
RMM:   4    -0.793888135319E+03    0.84583E-05   -0.19471E-06  2361   0.275E-03    0.121E-03
RMM:   5    -0.793888132226E+03    0.30925E-05   -0.33457E-07  2240   0.107E-03    0.492E-04
RMM:   6    -0.793888133299E+03   -0.10726E-05   -0.60733E-08  1490   0.527E-04    0.111E-04
RMM:   7    -0.793888132838E+03    0.46068E-06   -0.50689E-09   804   0.360E-04
  22 F= -.79388813E+03 E0= -.79388813E+03  d E =-.229746E-04
 curvature:  -1.23 expect dE=-0.109E-02 dE for cont linesearch -0.422E-09
 trial: gam= 0.41116 g(F)=  0.840E-03 g(S)=  0.523E-04 ort =-0.939E-06 (trialstep = 0.685E+00)
 search vector abs. value=  0.133E-02
 bond charge predicted
 -----------------------------------------------------------------------------
|                                                                             |
|           W    W    AA    RRRRR   N    N  II  N    N   GGGG   !!!           |
|           W    W   A  A   R    R  NN   N  II  NN   N  G    G  !!!           |
|           W    W  A    A  R    R  N N  N  II  N N  N  G       !!!           |
|           W WW W  AAAAAA  RRRRR   N  N N  II  N  N N  G  GGG   !            |
|           WW  WW  A    A  R   R   N   NN  II  N   NN  G    G                |
|           W    W  A    A  R    R  N    N  II  N    N   GGGG   !!!           |
|                                                                             |
|     Tetrahedron method does not include variations of the Fermi             |
|     occupations, so forces and stress will be inaccurate. We suggest        |
|     using a different smearing scheme ISMEAR = 1 or 2 for metals in         |
|     relaxations.                                                            |
|                                                                             |
 -----------------------------------------------------------------------------

       N       E                     dE             d eps       ncg     rms          rms(c)
DAV:   1    -0.793890097918E+03   -0.19646E-02   -0.36869E-02  3849   0.424E-01    0.556E-02
RMM:   2    -0.793889849746E+03    0.24817E-03   -0.74662E-04  3728   0.566E-02    0.315E-02
RMM:   3    -0.793889738567E+03    0.11118E-03   -0.12880E-04  3731   0.227E-02    0.966E-03
RMM:   4    -0.793889712640E+03    0.25927E-04   -0.24401E-05  3750   0.968E-03    0.349E-03
RMM:   5    -0.793889714094E+03   -0.14539E-05   -0.40599E-06  2762   0.398E-03    0.206E-03
RMM:   6    -0.793889718247E+03   -0.41532E-05   -0.84525E-07  2306   0.178E-03    0.602E-04
RMM:   7    -0.793889717821E+03    0.42645E-06   -0.17709E-07  2100   0.837E-04
  23 F= -.79388972E+03 E0= -.79388972E+03  d E =-.158498E-02
 trial-energy change:   -0.001585  1 .order    0.000002   -0.000611    0.000616
 step:   0.6440(harm=  0.3414)  dis= 0.00064  next Energy=  -793.889736 (dE=-0.160E-02)
 bond charge predicted
 -----------------------------------------------------------------------------
|                                                                             |
|           W    W    AA    RRRRR   N    N  II  N    N   GGGG   !!!           |
|           W    W   A  A   R    R  NN   N  II  NN   N  G    G  !!!           |
|           W    W  A    A  R    R  N N  N  II  N N  N  G       !!!           |
|           W WW W  AAAAAA  RRRRR   N  N N  II  N  N N  G  GGG   !            |
|           WW  WW  A    A  R   R   N   NN  II  N   NN  G    G                |
|           W    W  A    A  R    R  N    N  II  N    N   GGGG   !!!           |
|                                                                             |
|     Tetrahedron method does not include variations of the Fermi             |
|     occupations, so forces and stress will be inaccurate. We suggest        |
|     using a different smearing scheme ISMEAR = 1 or 2 for metals in         |
|     relaxations.                                                            |
|                                                                             |
 -----------------------------------------------------------------------------

       N       E                     dE             d eps       ncg     rms          rms(c)
DAV:   1    -0.793889638529E+03    0.79718E-04   -0.14174E-04  4192   0.256E-02    0.357E-03
RMM:   2    -0.793889655085E+03   -0.16556E-04   -0.25613E-06  2255   0.336E-03    0.210E-03
RMM:   3    -0.793889661288E+03   -0.62030E-05   -0.47908E-07  1980   0.135E-03    0.667E-04
RMM:   4    -0.793889663236E+03   -0.19480E-05   -0.71464E-08  1598   0.584E-04    0.224E-04
RMM:   5    -0.793889663311E+03   -0.75692E-07   -0.45937E-11   368   0.302E-04
  24 F= -.79388966E+03 E0= -.79388966E+03  d E =-.153047E-02
 curvature:  -0.06 expect dE=-0.102E-03 dE for cont linesearch -0.292E-04
 ZBRENT: interpolating
 opt :   0.3353  next Energy=  -793.889790 (dE=-0.166E-02)
 bond charge predicted
 -----------------------------------------------------------------------------
|                                                                             |
|           W    W    AA    RRRRR   N    N  II  N    N   GGGG   !!!           |
|           W    W   A  A   R    R  NN   N  II  NN   N  G    G  !!!           |
|           W    W  A    A  R    R  N N  N  II  N N  N  G       !!!           |
|           W WW W  AAAAAA  RRRRR   N  N N  II  N  N N  G  GGG   !            |
|           WW  WW  A    A  R   R   N   NN  II  N   NN  G    G                |
|           W    W  A    A  R    R  N    N  II  N    N   GGGG   !!!           |
|                                                                             |
|     Tetrahedron method does not include variations of the Fermi             |
|     occupations, so forces and stress will be inaccurate. We suggest        |
|     using a different smearing scheme ISMEAR = 1 or 2 for metals in         |
|     relaxations.                                                            |
|                                                                             |
 -----------------------------------------------------------------------------

       N       E                     dE             d eps       ncg     rms          rms(c)
DAV:   1    -0.793888921270E+03    0.74197E-03   -0.75442E-03  3866   0.191E-01    0.286E-02
RMM:   2    -0.793889047600E+03   -0.12633E-03   -0.16055E-04  3728   0.257E-02    0.158E-02
RMM:   3    -0.793889089660E+03   -0.42060E-04   -0.26280E-05  3730   0.101E-02    0.474E-03
RMM:   4    -0.793889102138E+03   -0.12478E-04   -0.50178E-06  3021   0.421E-03    0.156E-03
RMM:   5    -0.793889101041E+03    0.10967E-05   -0.75917E-07  2281   0.171E-03    0.866E-04
RMM:   6    -0.793889098643E+03    0.23983E-05   -0.15686E-07  2035   0.775E-04    0.290E-04
RMM:   7    -0.793889099211E+03   -0.56789E-06   -0.21035E-08  1047   0.420E-04
  25 F= -.79388910E+03 E0= -.79388910E+03  d E =-.966373E-03
 curvature:  -0.25 expect dE=-0.664E-04 dE for cont linesearch -0.542E-05
 trial: gam= 0.09261 g(F)=  0.239E-03 g(S)=  0.272E-04 ort = 0.170E-03 (trialstep = 0.615E+00)
 search vector abs. value=  0.309E-03
 bond charge predicted
 -----------------------------------------------------------------------------
|                                                                             |
|           W    W    AA    RRRRR   N    N  II  N    N   GGGG   !!!           |
|           W    W   A  A   R    R  NN   N  II  NN   N  G    G  !!!           |
|           W    W  A    A  R    R  N N  N  II  N N  N  G       !!!           |
|           W WW W  AAAAAA  RRRRR   N  N N  II  N  N N  G  GGG   !            |
|           WW  WW  A    A  R   R   N   NN  II  N   NN  G    G                |
|           W    W  A    A  R    R  N    N  II  N    N   GGGG   !!!           |
|                                                                             |
|     Tetrahedron method does not include variations of the Fermi             |
|     occupations, so forces and stress will be inaccurate. We suggest        |
|     using a different smearing scheme ISMEAR = 1 or 2 for metals in         |
|     relaxations.                                                            |
|                                                                             |
 -----------------------------------------------------------------------------

       N       E                     dE             d eps       ncg     rms          rms(c)
DAV:   1    -0.793890330363E+03   -0.12317E-02   -0.49256E-03  3867   0.168E-01    0.278E-02
RMM:   2    -0.793890025256E+03    0.30511E-03   -0.13185E-04  3728   0.237E-02    0.149E-02
RMM:   3    -0.793889994848E+03    0.30407E-04   -0.21557E-05  3730   0.924E-03    0.574E-03
RMM:   4    -0.793889977551E+03    0.17298E-04   -0.43666E-06  2954   0.389E-03    0.151E-03
RMM:   5    -0.793889979535E+03   -0.19843E-05   -0.68622E-07  2241   0.160E-03    0.630E-04
RMM:   6    -0.793889981660E+03   -0.21249E-05   -0.14207E-07  1887   0.708E-04    0.234E-04
RMM:   7    -0.793889981714E+03   -0.54303E-07   -0.20686E-08  1028   0.406E-04
  26 F= -.79388998E+03 E0= -.79388998E+03  d E =-.882503E-03
 trial-energy change:   -0.000883  1 .order   -0.000021   -0.000174    0.000132
 step:   0.6003(harm=  0.3499)  dis= 0.00026  next Energy=  -793.889983 (dE=-0.884E-03)
 bond charge predicted
 -----------------------------------------------------------------------------
|                                                                             |
|           W    W    AA    RRRRR   N    N  II  N    N   GGGG   !!!           |
|           W    W   A  A   R    R  NN   N  II  NN   N  G    G  !!!           |
|           W    W  A    A  R    R  N N  N  II  N N  N  G       !!!           |
|           W WW W  AAAAAA  RRRRR   N  N N  II  N  N N  G  GGG   !            |
|           WW  WW  A    A  R   R   N   NN  II  N   NN  G    G                |
|           W    W  A    A  R    R  N    N  II  N    N   GGGG   !!!           |
|                                                                             |
|     Tetrahedron method does not include variations of the Fermi             |
|     occupations, so forces and stress will be inaccurate. We suggest        |
|     using a different smearing scheme ISMEAR = 1 or 2 for metals in         |
|     relaxations.                                                            |
|                                                                             |
 -----------------------------------------------------------------------------

       N       E                     dE             d eps       ncg     rms          rms(c)
DAV:   1    -0.793889954580E+03    0.27079E-04   -0.36594E-06  3671   0.417E-03    0.668E-04
RMM:   2    -0.793889962132E+03   -0.75518E-05   -0.74629E-08  1325   0.668E-04    0.366E-04
RMM:   3    -0.793889963167E+03   -0.10344E-05   -0.86624E-09   528   0.345E-04    0.136E-04
RMM:   4    -0.793889963491E+03   -0.32454E-06   -0.54558E-09   330   0.325E-04
  27 F= -.79388996E+03 E0= -.79388996E+03  d E =-.864280E-03
 curvature:  -0.02 expect dE=-0.176E-04 dE for cont linesearch -0.297E-05
 trial: gam= 0.00000 g(F)=  0.791E-03 g(S)=  0.345E-04 ort =-0.208E-03 (trialstep = 0.229E+00)
 search vector abs. value=  0.826E-03
 bond charge predicted
 -----------------------------------------------------------------------------
|                                                                             |
|           W    W    AA    RRRRR   N    N  II  N    N   GGGG   !!!           |
|           W    W   A  A   R    R  NN   N  II  NN   N  G    G  !!!           |
|           W    W  A    A  R    R  N N  N  II  N N  N  G       !!!           |
|           W WW W  AAAAAA  RRRRR   N  N N  II  N  N N  G  GGG   !            |
|           WW  WW  A    A  R   R   N   NN  II  N   NN  G    G                |
|           W    W  A    A  R    R  N    N  II  N    N   GGGG   !!!           |
|                                                                             |
|     Tetrahedron method does not include variations of the Fermi             |
|     occupations, so forces and stress will be inaccurate. We suggest        |
|     using a different smearing scheme ISMEAR = 1 or 2 for metals in         |
|     relaxations.                                                            |
|                                                                             |
 -----------------------------------------------------------------------------

       N       E                     dE             d eps       ncg     rms          rms(c)
DAV:   1    -0.793890014981E+03   -0.51814E-04   -0.30503E-03  3895   0.124E-01    0.227E-02
RMM:   2    -0.793890059842E+03   -0.44861E-04   -0.81420E-05  3728   0.171E-02    0.128E-02
RMM:   3    -0.793890063522E+03   -0.36803E-05   -0.12785E-05  3692   0.677E-03    0.528E-03
RMM:   4    -0.793890062210E+03    0.13125E-05   -0.27514E-06  2577   0.292E-03    0.127E-03
RMM:   5    -0.793890061541E+03    0.66874E-06   -0.44038E-07  2223   0.124E-03
  28 F= -.79389006E+03 E0= -.79389006E+03  d E =-.980500E-04
 trial-energy change:   -0.000098  1 .order   -0.000071   -0.000189    0.000047
 step:   0.2010(harm=  0.1841)  dis= 0.00016  next Energy=  -793.890064 (dE=-0.101E-03)
 bond charge predicted
 -----------------------------------------------------------------------------
|                                                                             |
|           W    W    AA    RRRRR   N    N  II  N    N   GGGG   !!!           |
|           W    W   A  A   R    R  NN   N  II  NN   N  G    G  !!!           |
|           W    W  A    A  R    R  N N  N  II  N N  N  G       !!!           |
|           W WW W  AAAAAA  RRRRR   N  N N  II  N  N N  G  GGG   !            |
|           WW  WW  A    A  R   R   N   NN  II  N   NN  G    G                |
|           W    W  A    A  R    R  N    N  II  N    N   GGGG   !!!           |
|                                                                             |
|     Tetrahedron method does not include variations of the Fermi             |
|     occupations, so forces and stress will be inaccurate. We suggest        |
|     using a different smearing scheme ISMEAR = 1 or 2 for metals in         |
|     relaxations.                                                            |
|                                                                             |
 -----------------------------------------------------------------------------

       N       E                     dE             d eps       ncg     rms          rms(c)
DAV:   1    -0.793890071711E+03   -0.95014E-05   -0.45140E-05  4128   0.154E-02    0.331E-03
RMM:   2    -0.793890065500E+03    0.62111E-05   -0.12226E-06  2010   0.209E-03    0.209E-03
RMM:   3    -0.793890064319E+03    0.11816E-05   -0.22562E-07  1866   0.881E-04    0.901E-04
RMM:   4    -0.793890063735E+03    0.58331E-06   -0.27914E-08   721   0.455E-04
  29 F= -.79389006E+03 E0= -.79389006E+03  d E =-.100244E-03
 curvature:  -0.08 expect dE=-0.696E-05 dE for cont linesearch -0.448E-06
 trial: gam= 0.18899 g(F)=  0.767E-04 g(S)=  0.110E-04 ort =-0.683E-04 (trialstep = 0.224E+00)
 search vector abs. value=  0.914E-04
 bond charge predicted
 -----------------------------------------------------------------------------
|                                                                             |
|           W    W    AA    RRRRR   N    N  II  N    N   GGGG   !!!           |
|           W    W   A  A   R    R  NN   N  II  NN   N  G    G  !!!           |
|           W    W  A    A  R    R  N N  N  II  N N  N  G       !!!           |
|           W WW W  AAAAAA  RRRRR   N  N N  II  N  N N  G  GGG   !            |
|           WW  WW  A    A  R   R   N   NN  II  N   NN  G    G                |
|           W    W  A    A  R    R  N    N  II  N    N   GGGG   !!!           |
|                                                                             |
|     Tetrahedron method does not include variations of the Fermi             |
|     occupations, so forces and stress will be inaccurate. We suggest        |
|     using a different smearing scheme ISMEAR = 1 or 2 for metals in         |
|     relaxations.                                                            |
|                                                                             |
 -----------------------------------------------------------------------------

       N       E                     dE             d eps       ncg     rms          rms(c)
DAV:   1    -0.793890080975E+03   -0.16657E-04   -0.23997E-04  3885   0.362E-02    0.895E-03
RMM:   2    -0.793890122083E+03   -0.41108E-04   -0.58983E-06  3381   0.468E-03    0.608E-03
RMM:   3    -0.793890125668E+03   -0.35853E-05   -0.28665E-06  2547   0.279E-03    0.233E-03
RMM:   4    -0.793890126585E+03   -0.91662E-06   -0.52184E-07  2031   0.123E-03
  30 F= -.79389013E+03 E0= -.79389013E+03  d E =-.628498E-04
 trial-energy change:   -0.000063  1 .order   -0.000007   -0.000017    0.000003
 step:   0.2219(harm=  0.1911)  dis= 0.00005  next Energy=  -793.890127 (dE=-0.629E-04)
 bond charge predicted
 -----------------------------------------------------------------------------
|                                                                             |
|           W    W    AA    RRRRR   N    N  II  N    N   GGGG   !!!           |
|           W    W   A  A   R    R  NN   N  II  NN   N  G    G  !!!           |
|           W    W  A    A  R    R  N N  N  II  N N  N  G       !!!           |
|           W WW W  AAAAAA  RRRRR   N  N N  II  N  N N  G  GGG   !            |
|           WW  WW  A    A  R   R   N   NN  II  N   NN  G    G                |
|           W    W  A    A  R    R  N    N  II  N    N   GGGG   !!!           |
|                                                                             |
|     Tetrahedron method does not include variations of the Fermi             |
|     occupations, so forces and stress will be inaccurate. We suggest        |
|     using a different smearing scheme ISMEAR = 1 or 2 for metals in         |
|     relaxations.                                                            |
|                                                                             |
 -----------------------------------------------------------------------------

       N       E                     dE             d eps       ncg     rms          rms(c)
DAV:   1    -0.793890125686E+03   -0.17257E-07   -0.11039E-07  2464   0.673E-04    0.211E-04
RMM:   2    -0.793890125389E+03    0.29705E-06   -0.67832E-09   510   0.314E-04
  31 F= -.79389013E+03 E0= -.79389013E+03  d E =-.616534E-04
 curvature:  -0.01 expect dE=-0.199E-05 dE for cont linesearch -0.196E-07
 trial: gam= 1.38295 g(F)=  0.153E-03 g(S)=  0.526E-05 ort =-0.119E-04 (trialstep = 0.681E-01)
 search vector abs. value=  0.300E-03
 reached required accuracy - stopping structural energy minimisation
 -----------------------------------------------------------------------------
|                                                                             |
|           W    W    AA    RRRRR   N    N  II  N    N   GGGG   !!!           |
|           W    W   A  A   R    R  NN   N  II  NN   N  G    G  !!!           |
|           W    W  A    A  R    R  N N  N  II  N N  N  G       !!!           |
|           W WW W  AAAAAA  RRRRR   N  N N  II  N  N N  G  GGG   !            |
|           WW  WW  A    A  R   R   N   NN  II  N   NN  G    G                |
|           W    W  A    A  R    R  N    N  II  N    N   GGGG   !!!           |
|                                                                             |
|     Tetrahedron method does not include variations of the Fermi             |
|     occupations, so forces and stress will be inaccurate. We suggest        |
|     using a different smearing scheme ISMEAR = 1 or 2 for metals in         |
|     relaxations.                                                            |
|                                                                             |
 -----------------------------------------------------------------------------

Warning: ieee_invalid is signaling
Warning: ieee_divide_by_zero is signaling
Warning: ieee_underflow is signaling
Warning: ieee_inexact is signaling
FORTRAN STOP
