 vasp.6.2.0 18Jan21 (build Feb 25 2021 07:51:20) complex                         
 executed on             LinuxPGI date 2022.05.18  08:00:07
 running on    1 total cores
 distrk:  each k-point on    1 cores,    1 groups
 distr:  one band on NCORE=   1 cores,    1 groups


--------------------------------------------------------------------------------------------------------


 INCAR:
   ALGO = Fast
   PREC = Accurate
   EDIFF = 1E-6
   ENCUT = 700
   ISMEAR = -5
   IBRION = 2
   ISIF = 4
   LREAL = Auto
   LWAVE = False
   LCHARGE = False
   NSW = 300
   SIGMA = 0.05

 POTCAR:    PAW_PBE B 06Sep2000                   
 POTCAR:    PAW_PBE C 08Apr2002                   
 POTCAR:    PAW_PBE B 06Sep2000                   
   VRHFIN =B: s2p1                                                                                  
   LEXCH  = PE                                                                                      
   EATOM  =    71.1703 eV,    5.2309 Ry                                                             
                                                                                                    
   TITEL  = PAW_PBE B 06Sep2000                                                                     
   LULTRA =        F    use ultrasoft PP ?                                                          
   IUNSCR =        1    unscreen: 0-lin 1-nonlin 2-no                                               
   RPACOR =    1.200    partial core radius                                                         
   POMASS =   10.811; ZVAL   =    3.000    mass and valenz                                          
   RCORE  =    1.700    outmost cutoff radius                                                       
   RWIGS  =    1.710; RWIGS  =    0.905    wigner-seitz radius (au A)                               
   ENMAX  =  318.614; ENMIN  =  238.960 eV                                                          
   ICORE  =        2    local potential                                                             
   LCOR   =        T    correct aug charges                                                         
   LPAW   =        T    paw PP                                                                      
   EAUG   =  535.514                                                                                
   DEXC   =    0.000                                                                                
   RMAX   =    1.732    core radius for proj-oper                                                   
   RAUG   =    1.300    factor for augmentation sphere                                              
   RDEP   =    1.757    radius for radial grids                                                     
   RDEPT  =    1.436    core radius for aug-charge                                                  
                                                                                                    
   Atomic configuration                                                                             
    4 entries                                                                                       
     n  l   j            E        occ.                                                              
     1  0  0.50      -180.5896   2.0000                                                             
     2  0  0.50        -9.4431   2.0000                                                             
     2  1  0.50        -3.6068   1.0000                                                             
     3  2  1.50        -4.0817   0.0000                                                             
   Description                                                                                      
     l       E           TYP  RCUT    TYP  RCUT                                                     
     0     -9.4430752     23  1.500                                                                 
     0      0.8675899     23  1.500                                                                 
     1     -3.6067955     23  1.700                                                                 
     1      6.1086146     23  1.700                                                                 
     2     -4.0817478      7  1.700                                                                 
  local pseudopotential read in
  partial core-charges read in
  partial kinetic energy density read in
  atomic valenz-charges read in
  non local Contribution for L=            0  read in
    real space projection operators read in
  non local Contribution for L=            0  read in
    real space projection operators read in
  non local Contribution for L=            1  read in
    real space projection operators read in
  non local Contribution for L=            1  read in
    real space projection operators read in
    PAW grid and wavefunctions read in
 
   number of l-projection  operators is LMAX  =            4
   number of lm-projection operators is LMMAX =            8
 
 POTCAR:    PAW_PBE C 08Apr2002                   
   VRHFIN =C: s2p2                                                                                  
   LEXCH  = PE                                                                                      
   EATOM  =   147.1560 eV,   10.8157 Ry                                                             
                                                                                                    
   TITEL  = PAW_PBE C 08Apr2002                                                                     
   LULTRA =        F    use ultrasoft PP ?                                                          
   IUNSCR =        1    unscreen: 0-lin 1-nonlin 2-no                                               
   RPACOR =    1.200    partial core radius                                                         
   POMASS =   12.011; ZVAL   =    4.000    mass and valenz                                          
   RCORE  =    1.500    outmost cutoff radius                                                       
   RWIGS  =    1.630; RWIGS  =    0.863    wigner-seitz radius (au A)                               
   ENMAX  =  400.000; ENMIN  =  300.000 eV                                                          
   ICORE  =        2    local potential                                                             
   LCOR   =        T    correct aug charges                                                         
   LPAW   =        T    paw PP                                                                      
   EAUG   =  644.873                                                                                
   DEXC   =    0.000                                                                                
   RMAX   =    1.529    core radius for proj-oper                                                   
   RAUG   =    1.300    factor for augmentation sphere                                              
   RDEP   =    1.501    radius for radial grids                                                     
   RDEPT  =    1.300    core radius for aug-charge                                                  
                                                                                                    
   Atomic configuration                                                                             
    4 entries                                                                                       
     n  l   j            E        occ.                                                              
     1  0  0.50      -273.3789   2.0000                                                             
     2  0  0.50       -13.7508   2.0000                                                             
     2  1  0.50        -5.2854   2.0000                                                             
     3  2  1.50        -5.4423   0.0000                                                             
   Description                                                                                      
     l       E           TYP  RCUT    TYP  RCUT                                                     
     0    -13.7508458     23  1.200                                                                 
     0     -8.2022199     23  1.200                                                                 
     1     -5.2854383     23  1.500                                                                 
     1     34.0145650     23  1.500                                                                 
     2     -5.4423304      7  1.500                                                                 
  local pseudopotential read in
  partial core-charges read in
  partial kinetic energy density read in
  atomic valenz-charges read in
  non local Contribution for L=            0  read in
    real space projection operators read in
  non local Contribution for L=            0  read in
    real space projection operators read in
  non local Contribution for L=            1  read in
    real space projection operators read in
  non local Contribution for L=            1  read in
    real space projection operators read in
    PAW grid and wavefunctions read in
 
   number of l-projection  operators is LMAX  =            4
   number of lm-projection operators is LMMAX =            8
 
 Optimization of the real space projectors (new method)

 maximal supplied QI-value         = 22.11
 optimisation between [QCUT,QGAM] = [ 13.49, 26.97] = [ 50.94,203.75] Ry 
 Optimized for a Real-space Cutoff    1.14 Angstroem

   l    n(q)    QCUT    max X(q) W(low)/X(q) W(high)/X(q)  e(spline) 
   0      9    13.487    53.033    0.17E-03    0.11E-03    0.20E-06
   0      9    13.487    34.740    0.17E-03    0.11E-03    0.20E-06
   1      9    13.487    30.949    0.61E-04    0.25E-04    0.11E-06
   1      9    13.487    19.518    0.55E-04    0.23E-04    0.10E-06
 Optimization of the real space projectors (new method)

 maximal supplied QI-value         = 25.13
 optimisation between [QCUT,QGAM] = [ 13.32, 26.89] = [ 49.69,202.52] Ry 
 Optimized for a Real-space Cutoff    1.07 Angstroem

   l    n(q)    QCUT    max X(q) W(low)/X(q) W(high)/X(q)  e(spline) 
   0      9    13.321   115.676    0.24E-03    0.18E-03    0.16E-06
   0      9    13.321    87.132    0.24E-03    0.18E-03    0.16E-06
   1      8    13.321     4.429    0.20E-03    0.27E-03    0.12E-06
   1      8    13.321     2.733    0.16E-03    0.21E-03    0.12E-06
  PAW_PBE B 06Sep2000                   :
 energy of atom  1       EATOM=  -71.1703
 kinetic energy error for atom=    0.0004 (will be added to EATOM!!)
  PAW_PBE C 08Apr2002                   :
 energy of atom  2       EATOM= -147.1560
 kinetic energy error for atom=    0.0032 (will be added to EATOM!!)
 
 
 POSCAR: B96 C16
  positions in direct lattice
  No initial velocities read in
 exchange correlation table for  LEXCH =        8
   RHO(1)=    0.500       N(1)  =     2000
   RHO(2)=  100.500       N(2)  =     4000
 


--------------------------------------------------------------------------------------------------------


 ion  position               nearest neighbor table
   1  0.160  0.401  0.401-  97 1.45  59 1.70  35 1.78  76 1.81  42 1.82  66 1.89
   2  0.160  0.401  0.901-  98 1.45  60 1.70  36 1.78  75 1.81  41 1.82  65 1.89
   3  0.160  0.901  0.401-  99 1.45  57 1.70  33 1.78  74 1.81  44 1.82  68 1.89
   4  0.160  0.901  0.901- 100 1.45  58 1.70  34 1.78  73 1.81  43 1.82  67 1.89
   5  0.660  0.401  0.401- 101 1.45  63 1.70  39 1.78  80 1.81  46 1.82  70 1.89
   6  0.660  0.401  0.901- 102 1.45  64 1.70  40 1.78  79 1.81  45 1.82  69 1.89
   7  0.660  0.901  0.401- 103 1.45  61 1.70  37 1.78  78 1.81  48 1.82  72 1.89
   8  0.660  0.901  0.901- 104 1.45  62 1.70  38 1.78  77 1.81  47 1.82  71 1.89
   9  0.401  0.401  0.160-  97 1.63  45 1.70  69 1.76  51 1.77  27 1.78  87 1.87
  10  0.401  0.401  0.660-  98 1.63  46 1.70  70 1.76  52 1.77  28 1.78  88 1.87
  11  0.401  0.901  0.160-  99 1.63  47 1.70  71 1.76  49 1.77  25 1.78  85 1.87
  12  0.401  0.901  0.660- 100 1.63  48 1.70  72 1.76  50 1.77  26 1.78  86 1.87
  13  0.901  0.401  0.160- 101 1.63  41 1.70  65 1.76  55 1.77  31 1.78  83 1.87
  14  0.901  0.401  0.660- 102 1.63  42 1.70  66 1.76  56 1.77  32 1.78  84 1.87
  15  0.901  0.901  0.160- 103 1.63  43 1.70  67 1.76  53 1.77  29 1.78  81 1.87
  16  0.901  0.901  0.660- 104 1.63  44 1.70  68 1.76  54 1.77  30 1.78  82 1.87
  17  0.401  0.160  0.401-  97 1.49  37 1.70  61 1.74  94 1.78  26 1.82  50 1.94
  18  0.401  0.160  0.901-  98 1.49  38 1.70  62 1.74  93 1.78  25 1.82  49 1.94
  19  0.401  0.660  0.401-  99 1.49  39 1.70  63 1.74  96 1.78  28 1.82  52 1.94
  20  0.401  0.660  0.901- 100 1.49  40 1.70  64 1.74  95 1.78  27 1.82  51 1.94
  21  0.901  0.160  0.401- 101 1.49  33 1.70  57 1.74  90 1.78  30 1.82  54 1.94
  22  0.901  0.160  0.901- 102 1.49  34 1.70  58 1.74  89 1.78  29 1.82  53 1.94
  23  0.901  0.660  0.401- 103 1.49  35 1.70  59 1.74  92 1.78  32 1.82  56 1.94
  24  0.901  0.660  0.901- 104 1.49  36 1.70  60 1.74  91 1.78  31 1.82  55 1.94
  25  0.340  0.099  0.099- 105 1.45  85 1.70  11 1.78  49 1.81  18 1.82  93 1.89
  26  0.340  0.099  0.599- 106 1.45  86 1.70  12 1.78  50 1.81  17 1.82  94 1.89
  27  0.340  0.599  0.099- 107 1.45  87 1.70   9 1.78  51 1.81  20 1.82  95 1.89
  28  0.340  0.599  0.599- 108 1.45  88 1.70  10 1.78  52 1.81  19 1.82  96 1.89
  29  0.840  0.099  0.099- 109 1.45  81 1.70  15 1.78  53 1.81  22 1.82  89 1.89
  30  0.840  0.099  0.599- 110 1.45  82 1.70  16 1.78  54 1.81  21 1.82  90 1.89
  31  0.840  0.599  0.099- 111 1.45  83 1.70  13 1.78  55 1.81  24 1.82  91 1.89
  32  0.840  0.599  0.599- 112 1.45  84 1.70  14 1.78  56 1.81  23 1.82  92 1.89
  33  0.099  0.099  0.340- 105 1.63  21 1.70  90 1.76  74 1.77   3 1.78  57 1.87
  34  0.099  0.099  0.840- 106 1.63  22 1.70  89 1.76  73 1.77   4 1.78  58 1.87
  35  0.099  0.599  0.340- 107 1.63  23 1.70  92 1.76  76 1.77   1 1.78  59 1.87
  36  0.099  0.599  0.840- 108 1.63  24 1.70  91 1.76  75 1.77   2 1.78  60 1.87
  37  0.599  0.099  0.340- 109 1.63  17 1.70  94 1.76  78 1.77   7 1.78  61 1.87
  38  0.599  0.099  0.840- 110 1.63  18 1.70  93 1.76  77 1.77   8 1.78  62 1.87
  39  0.599  0.599  0.340- 111 1.63  19 1.70  96 1.76  80 1.77   5 1.78  63 1.87
  40  0.599  0.599  0.840- 112 1.63  20 1.70  95 1.76  79 1.77   6 1.78  64 1.87
  41  0.099  0.340  0.099- 105 1.49  13 1.70  83 1.74  65 1.78   2 1.82  75 1.94
  42  0.099  0.340  0.599- 106 1.49  14 1.70  84 1.74  66 1.78   1 1.82  76 1.94
  43  0.099  0.840  0.099- 107 1.49  15 1.70  81 1.74  67 1.78   4 1.82  73 1.94
  44  0.099  0.840  0.599- 108 1.49  16 1.70  82 1.74  68 1.78   3 1.82  74 1.94
  45  0.599  0.340  0.099- 109 1.49   9 1.70  87 1.74  69 1.78   6 1.82  79 1.94
  46  0.599  0.340  0.599- 110 1.49  10 1.70  88 1.74  70 1.78   5 1.82  80 1.94
  47  0.599  0.840  0.099- 111 1.49  11 1.70  85 1.74  71 1.78   8 1.82  77 1.94
  48  0.599  0.840  0.599- 112 1.49  12 1.70  86 1.74  72 1.78   7 1.82  78 1.94
  49  0.332  0.000  0.000-  73 1.71  71 1.72  11 1.77  25 1.81  62 1.87  18 1.94
  50  0.332  0.000  0.500-  74 1.71  72 1.72  12 1.77  26 1.81  61 1.87  17 1.94
  51  0.332  0.500  0.000-  75 1.71  69 1.72   9 1.77  27 1.81  64 1.87  20 1.94
  52  0.332  0.500  0.500-  76 1.71  70 1.72  10 1.77  28 1.81  63 1.87  19 1.94
  53  0.832  0.000  0.000-  77 1.71  67 1.72  15 1.77  29 1.81  58 1.87  22 1.94
  54  0.832  0.000  0.500-  78 1.71  68 1.72  16 1.77  30 1.81  57 1.87  21 1.94
  55  0.832  0.500  0.000-  79 1.71  65 1.72  13 1.77  31 1.81  60 1.87  24 1.94
  56  0.832  0.500  0.500-  80 1.71  66 1.72  14 1.77  32 1.81  59 1.87  23 1.94
  57  0.000  0.000  0.332-   3 1.70  81 1.71  21 1.74  54 1.87  33 1.87  68 1.92
  58  0.000  0.000  0.832-   4 1.70  82 1.71  22 1.74  53 1.87  34 1.87  67 1.92
  59  0.000  0.500  0.332-   1 1.70  83 1.71  23 1.74  56 1.87  35 1.87  66 1.92
  60  0.000  0.500  0.832-   2 1.70  84 1.71  24 1.74  55 1.87  36 1.87  65 1.92
  61  0.500  0.000  0.332-   7 1.70  85 1.71  17 1.74  50 1.87  37 1.87  72 1.92
  62  0.500  0.000  0.832-   8 1.70  86 1.71  18 1.74  49 1.87  38 1.87  71 1.92
  63  0.500  0.500  0.332-   5 1.70  87 1.71  19 1.74  52 1.87  39 1.87  70 1.92
  64  0.500  0.500  0.832-   6 1.70  88 1.71  20 1.74  51 1.87  40 1.87  69 1.92
  65  0.000  0.332  0.000-  55 1.72  13 1.76  89 1.77  41 1.78   2 1.89  60 1.92
  66  0.000  0.332  0.500-  56 1.72  14 1.76  90 1.77  42 1.78   1 1.89  59 1.92
  67  0.000  0.832  0.000-  53 1.72  15 1.76  91 1.77  43 1.78   4 1.89  58 1.92
  68  0.000  0.832  0.500-  54 1.72  16 1.76  92 1.77  44 1.78   3 1.89  57 1.92
  69  0.500  0.332  0.000-  51 1.72   9 1.76  93 1.77  45 1.78   6 1.89  64 1.92
  70  0.500  0.332  0.500-  52 1.72  10 1.76  94 1.77  46 1.78   5 1.89  63 1.92
  71  0.500  0.832  0.000-  49 1.72  11 1.76  95 1.77  47 1.78   8 1.89  62 1.92
  72  0.500  0.832  0.500-  50 1.72  12 1.76  96 1.77  48 1.78   7 1.89  61 1.92
  73  0.168  1.000  1.000-  49 1.71  89 1.72  34 1.77   4 1.81  81 1.87  43 1.94
  74  0.168  1.000  0.500-  50 1.71  90 1.72  33 1.77   3 1.81  82 1.87  44 1.94
  75  0.168  0.500  1.000-  51 1.71  91 1.72  36 1.77   2 1.81  83 1.87  41 1.94
  76  0.168  0.500  0.500-  52 1.71  92 1.72  35 1.77   1 1.81  84 1.87  42 1.94
  77  0.668  1.000  1.000-  53 1.71  93 1.72  38 1.77   8 1.81  85 1.87  47 1.94
  78  0.668  1.000  0.500-  54 1.71  94 1.72  37 1.77   7 1.81  86 1.87  48 1.94
  79  0.668  0.500  1.000-  55 1.71  95 1.72  40 1.77   6 1.81  87 1.87  45 1.94
  80  0.668  0.500  0.500-  56 1.71  96 1.72  39 1.77   5 1.81  88 1.87  46 1.94
  81  1.000  1.000  0.168-  29 1.70  57 1.71  43 1.74  73 1.87  15 1.87  89 1.92
  82  1.000  1.000  0.668-  30 1.70  58 1.71  44 1.74  74 1.87  16 1.87  90 1.92
  83  1.000  0.500  0.168-  31 1.70  59 1.71  41 1.74  75 1.87  13 1.87  91 1.92
  84  1.000  0.500  0.668-  32 1.70  60 1.71  42 1.74  76 1.87  14 1.87  92 1.92
  85  0.500  1.000  0.168-  25 1.70  61 1.71  47 1.74  77 1.87  11 1.87  93 1.92
  86  0.500  1.000  0.668-  26 1.70  62 1.71  48 1.74  78 1.87  12 1.87  94 1.92
  87  0.500  0.500  0.168-  27 1.70  63 1.71  45 1.74  79 1.87   9 1.87  95 1.92
  88  0.500  0.500  0.668-  28 1.70  64 1.71  46 1.74  80 1.87  10 1.87  96 1.92
  89  1.000  0.168  1.000-  73 1.72  34 1.76  65 1.77  22 1.78  29 1.89  81 1.92
  90  1.000  0.168  0.500-  74 1.72  33 1.76  66 1.77  21 1.78  30 1.89  82 1.92
  91  1.000  0.668  1.000-  75 1.72  36 1.76  67 1.77  24 1.78  31 1.89  83 1.92
  92  1.000  0.668  0.500-  76 1.72  35 1.76  68 1.77  23 1.78  32 1.89  84 1.92
  93  0.500  0.168  1.000-  77 1.72  38 1.76  69 1.77  18 1.78  25 1.89  85 1.92
  94  0.500  0.168  0.500-  78 1.72  37 1.76  70 1.77  17 1.78  26 1.89  86 1.92
  95  0.500  0.668  1.000-  79 1.72  40 1.76  71 1.77  20 1.78  27 1.89  87 1.92
  96  0.500  0.668  0.500-  80 1.72  39 1.76  72 1.77  19 1.78  28 1.89  88 1.92
  97  0.315  0.315  0.315-   1 1.45  17 1.49   9 1.63
  98  0.315  0.315  0.815-   2 1.45  18 1.49  10 1.63
  99  0.315  0.815  0.315-   3 1.45  19 1.49  11 1.63
 100  0.315  0.815  0.815-   4 1.45  20 1.49  12 1.63
 101  0.815  0.315  0.315-   5 1.45  21 1.49  13 1.63
 102  0.815  0.315  0.815-   6 1.45  22 1.49  14 1.63
 103  0.815  0.815  0.315-   7 1.45  23 1.49  15 1.63
 104  0.815  0.815  0.815-   8 1.45  24 1.49  16 1.63
 105  0.185  0.185  0.185-  25 1.45  41 1.49  33 1.63
 106  0.185  0.185  0.685-  26 1.45  42 1.49  34 1.63
 107  0.185  0.685  0.185-  27 1.45  43 1.49  35 1.63
 108  0.185  0.685  0.685-  28 1.45  44 1.49  36 1.63
 109  0.685  0.185  0.185-  29 1.45  45 1.49  37 1.63
 110  0.685  0.185  0.685-  30 1.45  46 1.49  38 1.63
 111  0.685  0.685  0.185-  31 1.45  47 1.49  39 1.63
 112  0.685  0.685  0.685-  32 1.45  48 1.49  40 1.63
 
  Warning from LATTYP: Got some problem with cell dimensions!
  Tried to take original basis but could not verify dimensions!
  LATTYP: Found a triclinic cell.
 ALAT       =    18.0386176002
 B/A-ratio  =     0.5672995159
 C/A-ratio  =     0.5744783696
 COS(alpha) =     0.0005909945
 COS(beta)  =     0.3305205635
 COS(gamma) =     0.8300680818
  
  Lattice vectors:
  
 A1 = (  14.5276600000,  -8.8133900000,  -6.0549960000)
 A2 = (   5.2004390000,  -8.8133900000,  -0.0000010000)
 A3 = (  -0.1093550000,  -0.0716360000, -10.3619710000)


Analysis of symmetry for initial positions (statically):
=====================================================================
 Subroutine PRICEL returns following result:
 
  Warning from LATTYP: Got some problem with cell dimensions!
  Tried to take original basis but could not verify dimensions!
  LATTYP: Found a triclinic cell.
 ALAT       =     9.0193088001
 B/A-ratio  =     0.5672995159
 C/A-ratio  =     0.5744783696
 COS(alpha) =     0.0005909945
 COS(beta)  =     0.3305205635
 COS(gamma) =     0.8300680818
  
  Lattice vectors:
  
 A1 = (   7.2638300000,  -4.4066950000,  -3.0274980000)
 A2 = (   2.6002195000,  -4.4066950000,  -0.0000005000)
 A3 = (  -0.0546775000,  -0.0358180000,  -5.1809855000)
 
   8 primitive cells build up your supercell.
 

 Routine SETGRP: Setting up the symmetry group for a 
 triclinic supercell.


 Subroutine GETGRP returns: Found  2 space group operations
 (whereof  2 operations were pure point group operations)
 out of a pool of  2 trial point group operations.


The static configuration has the point symmetry S_2 .


Analysis of symmetry for dynamics (positions and initial velocities):
=====================================================================
 Subroutine PRICEL returns following result:
 
  Warning from LATTYP: Got some problem with cell dimensions!
  Tried to take original basis but could not verify dimensions!
  LATTYP: Found a triclinic cell.
 ALAT       =     9.0193088001
 B/A-ratio  =     0.5672995159
 C/A-ratio  =     0.5744783696
 COS(alpha) =     0.0005909945
 COS(beta)  =     0.3305205635
 COS(gamma) =     0.8300680818
  
  Lattice vectors:
  
 A1 = (   7.2638300000,  -4.4066950000,  -3.0274980000)
 A2 = (   2.6002195000,  -4.4066950000,  -0.0000005000)
 A3 = (  -0.0546775000,  -0.0358180000,  -5.1809855000)
 
   8 primitive cells build up your supercell.
 

 Routine SETGRP: Setting up the symmetry group for a 
 triclinic supercell.


 Subroutine GETGRP returns: Found  2 space group operations
 (whereof  2 operations were pure point group operations)
 out of a pool of  2 trial point group operations.


The dynamic configuration has the point symmetry S_2 .


 Subroutine INISYM returns: Found  2 space group operations
 (whereof  2 operations are pure point group operations),
 and found     8 'primitive' translations


----------------------------------------------------------------------------------------

                                     Primitive cell                                     

  volume of cell :     107.4864

  direct lattice vectors                    reciprocal lattice vectors
     7.263830000 -4.406695000 -3.027498000     0.212408422  0.125333957 -0.003108129
     2.600219500 -4.406695000 -0.000000500    -0.211399560 -0.351666104  0.004662197
    -0.054677500 -0.035818000 -5.180985500    -0.124120395 -0.073238601 -0.191197244

  length of vectors
     9.019308800  5.116649516  5.181397814     0.246648736  0.410342002  0.239428802

  position of ions in fractional coordinates (direct lattice)
     0.121820000  0.077150000  0.077150000
     0.602060000  0.596910000  0.077150000
     0.121820000  0.557390000  0.077150000
     0.878180000  0.922850000  0.922850000
     0.397940000  0.403090000  0.922850000
     0.878180000  0.442610000  0.922850000
     0.664816000  0.334954000  0.334954000
     0.000460000  0.999310000  0.334954000
     0.664816000  0.670598000  0.334954000
     0.335184000  0.665046000  0.665046000
     0.999540000  0.000690000  0.665046000
     0.335184000  0.329402000  0.665046000
     0.261588000  0.107618000  0.107618000
     0.738412000  0.892382000  0.892382000

  ion indices of the primitive-cell ions
   primitive index   ion index
                 1           1
                 2           9
                 3          17
                 4          28
                 5          35
                 6          42
                 7          52
                 8          59
                 9          66
                10          76
                11          83
                12          90
                13          97
                14         105

----------------------------------------------------------------------------------------

 
 -----------------------------------------------------------------------------
|                                                                             |
|           W    W    AA    RRRRR   N    N  II  N    N   GGGG   !!!           |
|           W    W   A  A   R    R  NN   N  II  NN   N  G    G  !!!           |
|           W    W  A    A  R    R  N N  N  II  N N  N  G       !!!           |
|           W WW W  AAAAAA  RRRRR   N  N N  II  N  N N  G  GGG   !            |
|           WW  WW  A    A  R   R   N   NN  II  N   NN  G    G                |
|           W    W  A    A  R    R  N    N  II  N    N   GGGG   !!!           |
|                                                                             |
|     The requested file  could not be found or opened for reading            |
|     k-point information. Automatic k-point generation is used as a          |
|     fallback, which may lead to unwanted results.                           |
|                                                                             |
 -----------------------------------------------------------------------------

 

Automatic generation of k-mesh.
 Grid dimensions derived from KSPACING:
 generate k-points for:    2    2    2

 Generating k-lattice:

  Cartesian coordinates                     Fractional coordinates (reciprocal lattice)
     0.053354321 -0.025249547 -0.000388515     0.500000000 -0.000000000  0.000000000
    -0.000252215  0.056583037 -0.000388517    -0.000000000  0.500000000 -0.000000000
    -0.022072007 -0.013023839  0.048576343    -0.000000000 -0.000000000  0.500000000

  Length of vectors
     0.059028587  0.056584933  0.054922263

  Shift w.r.t. Gamma in fractional coordinates (k-lattice)
     0.000000000  0.000000000  0.000000000

 TETIRR: Found     24 inequivalent tetrahedra from       48
 
 Subroutine IBZKPT returns following result:
 ===========================================
 
 Found      8 irreducible k-points:
 
 Following reciprocal coordinates:
            Coordinates               Weight
  0.000000  0.000000  0.000000      1.000000
  0.500000  0.000000  0.000000      1.000000
  0.000000  0.500000  0.000000      1.000000
  0.500000  0.500000  0.000000      1.000000
  0.000000  0.000000  0.500000      1.000000
  0.500000  0.000000  0.500000      1.000000
  0.000000  0.500000  0.500000      1.000000
  0.500000  0.500000  0.500000      1.000000
 
 Following cartesian coordinates:
            Coordinates               Weight
  0.000000  0.000000  0.000000      1.000000
  0.053354 -0.025250 -0.000389      1.000000
 -0.000252  0.056583 -0.000389      1.000000
  0.053102  0.031333 -0.000777      1.000000
 -0.022072 -0.013024  0.048576      1.000000
  0.031282 -0.038273  0.048188      1.000000
 -0.022324  0.043559  0.048188      1.000000
  0.031030  0.018310  0.047799      1.000000
 


--------------------------------------------------------------------------------------------------------




 Dimension of arrays:
   k-points           NKPTS =      8   k-points in BZ     NKDIM =      8   number of bands    NBANDS=    233
   number of dos      NEDOS =    301   number of ions     NIONS =    112
   non local maximal  LDIM  =      4   non local SUM 2l+1 LMDIM =      8
   total plane-waves  NPLWV = 777600
   max r-space proj   IRMAX =   5667   max aug-charges    IRDMAX=  14300
   dimension x,y,z NGX =    90 NGY =   96 NGZ =   90
   dimension x,y,z NGXF=   180 NGYF=  192 NGZF=  180
   support grid    NGXF=   180 NGYF=  192 NGZF=  180
   ions per type =              96  16
   NGX,Y,Z   is equivalent  to a cutoff of  14.42, 14.85, 14.44 a.u.
   NGXF,Y,Z  is equivalent  to a cutoff of  28.85, 29.71, 28.88 a.u.

 SYSTEM =  unknown system                          
 POSCAR =  B96 C16                                 

 Startparameter for this run:
   NWRITE =      2    write-flag & timer
   PREC   = accura    normal or accurate (medium, high low for compatibility)
   ISTART =      0    job   : 0-new  1-cont  2-samecut
   ICHARG =      2    charge: 1-file 2-atom 10-const
   ISPIN  =      1    spin polarized calculation?
   LNONCOLLINEAR =      F non collinear calculations
   LSORBIT =      F    spin-orbit coupling
   INIWAV =      1    electr: 0-lowe 1-rand  2-diag
   LASPH  =      F    aspherical Exc in radial PAW
   METAGGA=      F    non-selfconsistent MetaGGA calc.

 Electronic Relaxation 1
   ENCUT  =  700.0 eV  51.45 Ry    7.17 a.u.  22.38 23.18 22.36*2*pi/ulx,y,z
   ENINI  =  700.0     initial cutoff
   ENAUG  =  644.9 eV  augmentation charge cutoff
   NELM   =     60;   NELMIN=  2; NELMDL= -5     # of ELM steps 
   EDIFF  = 0.1E-05   stopping-criterion for ELM
   LREAL  =      T    real-space projection
   NLSPLINE    = F    spline interpolate recip. space projectors
   LCOMPAT=      F    compatible to vasp.4.4
   GGA_COMPAT  = T    GGA compatible to vasp.4.4-vasp.4.6
   LMAXPAW     = -100 max onsite density
   LMAXMIX     =    2 max onsite mixed and CHGCAR
   VOSKOWN=      0    Vosko Wilk Nusair interpolation
   ROPT   =   -0.00025  -0.00025
 Ionic relaxation
   EDIFFG = 0.1E-04   stopping-criterion for IOM
   NSW    =    300    number of steps for IOM
   NBLOCK =      1;   KBLOCK =    300    inner block; outer block 
   IBRION =      2    ionic relax: 0-MD 1-quasi-New 2-CG
   NFREE  =      1    steps in history (QN), initial steepest desc. (CG)
   ISIF   =      4    stress and relaxation
   IWAVPR =     11    prediction:  0-non 1-charg 2-wave 3-comb
   ISYM   =      2    0-nonsym 1-usesym 2-fastsym
   LCORR  =      T    Harris-Foulkes like correction to forces

   POTIM  = 0.5000    time-step for ionic-motion
   TEIN   =    0.0    initial temperature
   TEBEG  =    0.0;   TEEND  =   0.0 temperature during run
   SMASS  =  -3.00    Nose mass-parameter (am)
   estimated Nose-frequenzy (Omega)   =  0.10E-29 period in steps = 0.13E+47 mass=  -0.246E-26a.u.
   SCALEE = 1.0000    scale energy and forces
   NPACO  =    256;   APACO  = 16.0  distance and # of slots for P.C.
   PSTRESS=    0.0 pullay stress

  Mass of Ions in am
   POMASS =  10.81 12.01
  Ionic Valenz
   ZVAL   =   3.00  4.00
  Atomic Wigner-Seitz radii
   RWIGS  =  -1.00 -1.00
  virtual crystal weights 
   VCA    =   1.00  1.00
   NELECT =     352.0000    total number of electrons
   NUPDOWN=      -1.0000    fix difference up-down

 DOS related values:
   EMIN   =  10.00;   EMAX   =-10.00  energy-range for DOS
   EFERMI =   0.00
   ISMEAR =    -5;   SIGMA  =   0.05  broadening in eV -4-tet -1-fermi 0-gaus

 Electronic relaxation 2 (details)
   IALGO  =     68    algorithm
   LDIAG  =      T    sub-space diagonalisation (order eigenvalues)
   LSUBROT=      F    optimize rotation matrix (better conditioning)
   TURBO    =      0    0=normal 1=particle mesh
   IRESTART =      0    0=no restart 2=restart with 2 vectors
   NREBOOT  =      0    no. of reboots
   NMIN     =      0    reboot dimension
   EREF     =   0.00    reference energy to select bands
   IMIX   =      4    mixing-type and parameters
     AMIX     =   0.40;   BMIX     =  1.00
     AMIX_MAG =   1.60;   BMIX_MAG =  1.00
     AMIN     =   0.10
     WC   =   100.;   INIMIX=   1;  MIXPRE=   1;  MAXMIX= -45

 Intra band minimization:
   WEIMIN = 0.0010     energy-eigenvalue tresh-hold
   EBREAK =  0.11E-08  absolut break condition
   DEPER  =   0.30     relativ break condition  

   TIME   =   0.40     timestep for ELM

  volume/ion in A,a.u.               =       7.68        51.81
  Fermi-wavevector in a.u.,A,eV,Ry     =   1.215555  2.297065 20.103605  1.477573
  Thomas-Fermi vector in A             =   2.350938
 
 Write flags
   LWAVE        =      F    write WAVECAR
   LDOWNSAMPLE  =      F    k-point downsampling of WAVECAR
   LCHARG       =      T    write CHGCAR
   LVTOT        =      F    write LOCPOT, total local potential
   LVHAR        =      F    write LOCPOT, Hartree potential only
   LELF         =      F    write electronic localiz. function (ELF)
   LORBIT       =      0    0 simple, 1 ext, 2 COOP (PROOUT), +10 PAW based schemes


 Dipole corrections
   LMONO  =      F    monopole corrections only (constant potential shift)
   LDIPOL =      F    correct potential (dipole corrections)
   IDIPOL =      0    1-x, 2-y, 3-z, 4-all directions 
   EPSILON=  1.0000000 bulk dielectric constant

 Exchange correlation treatment:
   GGA     =    --    GGA type
   LEXCH   =     8    internal setting for exchange type
   VOSKOWN=      0    Vosko Wilk Nusair interpolation
   LHFCALC =     F    Hartree Fock is set to
   LHFONE  =     F    Hartree Fock one center treatment
   AEXX    =    0.0000 exact exchange contribution

 Linear response parameters
   LEPSILON=     F    determine dielectric tensor
   LRPA    =     F    only Hartree local field effects (RPA)
   LNABLA  =     F    use nabla operator in PAW spheres
   LVEL    =     F    velocity operator in full k-point grid
   LINTERFAST=   F  fast interpolation
   KINTER  =     0    interpolate to denser k-point grid
   CSHIFT  =0.1000    complex shift for real part using Kramers Kronig
   OMEGAMAX=  -1.0    maximum frequency
   DEG_THRESHOLD= 0.2000000E-02 threshold for treating states as degnerate
   RTIME   =   -0.100 relaxation time in fs
  (WPLASMAI=    0.000 imaginary part of plasma frequency in eV, 0.658/RTIME)
   DFIELD  = 0.0000000 0.0000000 0.0000000 field for delta impulse in time
 
 Orbital magnetization related:
   ORBITALMAG=     F  switch on orbital magnetization
   LCHIMAG   =     F  perturbation theory with respect to B field
   DQ        =  0.001000  dq finite difference perturbation B field
   LLRAUG    =     F  two centre corrections for induced B field



--------------------------------------------------------------------------------------------------------


 conjugate gradient relaxation of ions
 charge density and potential will be updated during run
 non-spin polarized calculation
 RMM-DIIS sequential band-by-band and
  variant of blocked Davidson during initial phase
 perform sub-space diagonalisation
    before iterative eigenvector-optimisation
 modified Broyden-mixing scheme, WC =      100.0
 initial mixing is a Kerker type mixing with AMIX =  0.4000 and BMIX =      1.0000
 Hartree-type preconditioning will be used
 using additional bands            57
 real space projection scheme for non local part
 use partial core corrections
 calculate Harris-corrections to forces 
   (improved forces if not selfconsistent)
 use gradient corrections 
 use of overlap-Matrix (Vanderbilt PP)
 Fermi weights with tetrahedron method with Bloechl corrections


--------------------------------------------------------------------------------------------------------


  energy-cutoff  :      700.00
  volume of cell :      859.89
      direct lattice vectors                 reciprocal lattice vectors
     9.436576000  0.071636000  4.306976000     0.106708642 -0.050499095 -0.000777031
     4.236137000  8.885026000  4.306977000    -0.000504431  0.113166073 -0.000777034
     0.109355000  0.071636000 10.361971000    -0.044144013 -0.026047678  0.097152686

  length of vectors
    10.373241566 10.744235412 10.362795628     0.118057175  0.113169865  0.109844526


 
 k-points in units of 2pi/SCALE and weight: read from INCAR                         
   0.00000000  0.00000000  0.00000000       0.125
   0.05335432 -0.02524955 -0.00038852       0.125
  -0.00025222  0.05658304 -0.00038852       0.125
   0.05310211  0.03133349 -0.00077703       0.125
  -0.02207201 -0.01302384  0.04857634       0.125
   0.03128231 -0.03827339  0.04818783       0.125
  -0.02232422  0.04355920  0.04818783       0.125
   0.03103010  0.01830965  0.04779931       0.125
 
 k-points in reciprocal lattice and weights: read from INCAR                         
   0.00000000  0.00000000  0.00000000       0.125
   0.50000000  0.00000000  0.00000000       0.125
   0.00000000  0.50000000  0.00000000       0.125
   0.50000000  0.50000000  0.00000000       0.125
   0.00000000  0.00000000  0.50000000       0.125
   0.50000000  0.00000000  0.50000000       0.125
   0.00000000  0.50000000  0.50000000       0.125
   0.50000000  0.50000000  0.50000000       0.125
 
 position of ions in fractional coordinates (direct lattice) 
   0.16039500  0.40051500  0.40051500
   0.16039500  0.40051500  0.90051500
   0.16039500  0.90051500  0.40051500
   0.16039500  0.90051500  0.90051500
   0.66039500  0.40051500  0.40051500
   0.66039500  0.40051500  0.90051500
   0.66039500  0.90051500  0.40051500
   0.66039500  0.90051500  0.90051500
   0.40051500  0.40051500  0.16039500
   0.40051500  0.40051500  0.66039500
   0.40051500  0.90051500  0.16039500
   0.40051500  0.90051500  0.66039500
   0.90051500  0.40051500  0.16039500
   0.90051500  0.40051500  0.66039500
   0.90051500  0.90051500  0.16039500
   0.90051500  0.90051500  0.66039500
   0.40051500  0.16039500  0.40051500
   0.40051500  0.16039500  0.90051500
   0.40051500  0.66039500  0.40051500
   0.40051500  0.66039500  0.90051500
   0.90051500  0.16039500  0.40051500
   0.90051500  0.16039500  0.90051500
   0.90051500  0.66039500  0.40051500
   0.90051500  0.66039500  0.90051500
   0.33960500  0.09948500  0.09948500
   0.33960500  0.09948500  0.59948500
   0.33960500  0.59948500  0.09948500
   0.33960500  0.59948500  0.59948500
   0.83960500  0.09948500  0.09948500
   0.83960500  0.09948500  0.59948500
   0.83960500  0.59948500  0.09948500
   0.83960500  0.59948500  0.59948500
   0.09948500  0.09948500  0.33960500
   0.09948500  0.09948500  0.83960500
   0.09948500  0.59948500  0.33960500
   0.09948500  0.59948500  0.83960500
   0.59948500  0.09948500  0.33960500
   0.59948500  0.09948500  0.83960500
   0.59948500  0.59948500  0.33960500
   0.59948500  0.59948500  0.83960500
   0.09948500  0.33960500  0.09948500
   0.09948500  0.33960500  0.59948500
   0.09948500  0.83960500  0.09948500
   0.09948500  0.83960500  0.59948500
   0.59948500  0.33960500  0.09948500
   0.59948500  0.33960500  0.59948500
   0.59948500  0.83960500  0.09948500
   0.59948500  0.83960500  0.59948500
   0.33229300  0.00011500  0.00011500
   0.33229300  0.00011500  0.50011500
   0.33229300  0.50011500  0.00011500
   0.33229300  0.50011500  0.50011500
   0.83229300  0.00011500  0.00011500
   0.83229300  0.00011500  0.50011500
   0.83229300  0.50011500  0.00011500
   0.83229300  0.50011500  0.50011500
   0.00011500  0.00011500  0.33229300
   0.00011500  0.00011500  0.83229300
   0.00011500  0.50011500  0.33229300
   0.00011500  0.50011500  0.83229300
   0.50011500  0.00011500  0.33229300
   0.50011500  0.00011500  0.83229300
   0.50011500  0.50011500  0.33229300
   0.50011500  0.50011500  0.83229300
   0.00011500  0.33229300  0.00011500
   0.00011500  0.33229300  0.50011500
   0.00011500  0.83229300  0.00011500
   0.00011500  0.83229300  0.50011500
   0.50011500  0.33229300  0.00011500
   0.50011500  0.33229300  0.50011500
   0.50011500  0.83229300  0.00011500
   0.50011500  0.83229300  0.50011500
   0.16770700  0.99988500  0.99988500
   0.16770700  0.99988500  0.49988500
   0.16770700  0.49988500  0.99988500
   0.16770700  0.49988500  0.49988500
   0.66770700  0.99988500  0.99988500
   0.66770700  0.99988500  0.49988500
   0.66770700  0.49988500  0.99988500
   0.66770700  0.49988500  0.49988500
   0.99988500  0.99988500  0.16770700
   0.99988500  0.99988500  0.66770700
   0.99988500  0.49988500  0.16770700
   0.99988500  0.49988500  0.66770700
   0.49988500  0.99988500  0.16770700
   0.49988500  0.99988500  0.66770700
   0.49988500  0.49988500  0.16770700
   0.49988500  0.49988500  0.66770700
   0.99988500  0.16770700  0.99988500
   0.99988500  0.16770700  0.49988500
   0.99988500  0.66770700  0.99988500
   0.99988500  0.66770700  0.49988500
   0.49988500  0.16770700  0.99988500
   0.49988500  0.16770700  0.49988500
   0.49988500  0.66770700  0.99988500
   0.49988500  0.66770700  0.49988500
   0.31539700  0.31539700  0.31539700
   0.31539700  0.31539700  0.81539700
   0.31539700  0.81539700  0.31539700
   0.31539700  0.81539700  0.81539700
   0.81539700  0.31539700  0.31539700
   0.81539700  0.31539700  0.81539700
   0.81539700  0.81539700  0.31539700
   0.81539700  0.81539700  0.81539700
   0.18460300  0.18460300  0.18460300
   0.18460300  0.18460300  0.68460300
   0.18460300  0.68460300  0.18460300
   0.18460300  0.68460300  0.68460300
   0.68460300  0.18460300  0.18460300
   0.68460300  0.18460300  0.68460300
   0.68460300  0.68460300  0.18460300
   0.68460300  0.68460300  0.68460300
 
 position of ions in cartesian coordinates  (Angst):
   3.25401434  3.59876754  6.56595112
   3.30869184  3.63458554 11.74693662
   5.37208284  8.04128054  8.71943962
   5.42676034  8.07709854 13.90042512
   7.97230234  3.63458554  8.71943912
   8.02697984  3.67040354 13.90042462
  10.09037084  8.07709854 10.87292762
  10.14504834  8.11291654 16.05391312
   5.49366664  3.59876754  5.11202572
   5.54834414  3.63458554 10.29301122
   7.61173514  8.04128054  7.26551422
   7.66641264  8.07709854 12.44649972
  10.21195464  3.63458554  7.26551372
  10.26663214  3.67040354 12.44649922
  12.33002314  8.07709854  9.41900222
  12.38470064  8.11291654 14.59998772
   4.50274375  1.48249633  6.56595088
   4.55742125  1.51831433 11.74693638
   6.62081225  5.92500933  8.71943938
   6.67548975  5.96082733 13.90042488
   9.22103175  1.51831433  8.71943888
   9.27570925  1.55413233 13.90042438
  11.33910025  5.96082733 10.87292738
  11.39377775  5.99664533 16.05391288
   3.63701966  0.91538146  2.92201088
   3.69169716  0.95119946  8.10299638
   5.75508816  5.35789446  5.07549938
   5.80976566  5.39371246 10.25648488
   8.35530766  0.95119946  5.07549888
   8.40998516  0.98701746 10.25648438
  10.47337616  5.39371246  7.22898738
  10.52805366  5.42953046 12.40997288
   1.39736736  0.91538146  4.37593628
   1.45204486  0.95119946  9.55692178
   3.51543586  5.35789446  6.52942478
   3.57011336  5.39371246 11.71041028
   6.11565536  0.95119946  6.52942428
   6.17033286  0.98701746 11.71040978
   8.23372386  5.39371246  8.68291278
   8.28840136  5.42953046 13.86389828
   2.38829025  3.03165267  2.92201112
   2.44296775  3.06747067  8.10299662
   4.50635875  7.47416567  5.07549962
   4.56103625  7.50998367 10.25648512
   7.10657825  3.06747067  5.07549912
   7.16125575  3.10328867 10.25648462
   9.22464675  7.50998367  7.22898762
   9.27932425  7.54580167 12.40997312
   3.13620788  0.02483416  1.43286490
   3.19088538  0.06065216  6.61385040
   5.25427638  4.46734716  3.58635340
   5.30895388  4.50316516  8.76733890
   7.85449588  0.06065216  3.58635290
   7.90917338  0.09647016  8.76733840
   9.97256438  4.50316516  5.73984140
  10.02724188  4.53898316 10.92082690
   0.03791026  0.02483416  3.44420103
   0.09258776  0.06065216  8.62518653
   2.15597876  4.46734716  5.59768953
   2.21065626  4.50316516 10.77867503
   4.75619826  0.06065216  5.59768903
   4.81087576  0.09647016 10.77867453
   6.87426676  4.50316516  7.75117753
   6.92894426  4.53898316 12.93216303
   1.40873645  2.95244842  1.43286524
   1.46341395  2.98826642  6.61385074
   3.52680495  7.39496142  3.58635374
   3.58148245  7.43077942  8.76733924
   6.12702445  2.98826642  3.58635324
   6.18170195  3.02408442  8.76733874
   8.24509295  7.43077942  5.73984174
   8.29977045  7.46659742 10.92082724
   5.92757212  8.96764584 15.38957110
   5.87289462  8.93182784 10.20858560
   3.80950362  4.52513284 13.23608260
   3.75482612  4.48931484  8.05509710
  10.64586012  9.00346384 17.54305910
  10.59118262  8.96764584 12.36207360
   8.52779162  4.56095084 15.38957060
   8.47311412  4.52513284 10.20858510
  13.68948024  8.96764584 10.35073747
  13.74415774  9.00346384 15.53172297
  11.57141174  4.52513284  8.19724897
  11.62608924  4.56095084 13.37823447
   8.97119224  8.93182784  8.19724947
   9.02586974  8.96764584 13.37823497
   6.85312374  4.48931484  6.04376097
   6.90780124  4.52513284 11.22474647
  10.25526305  1.63333658 15.38957026
  10.20058555  1.59751858 10.20858476
  12.37333155  6.07584958 17.54305876
  12.31865405  6.04003158 12.36207326
   5.53697505  1.59751858 13.23608226
   5.48229755  1.56170058  8.05509676
   7.65504355  6.04003158 15.38957076
   7.60036605  6.00421358 10.20858526
   4.34682290  2.84749810  5.98494950
   4.40150040  2.88331610 11.16593500
   6.46489140  7.29001110  8.13843800
   6.51956890  7.32582910 13.31942350
   9.06511090  2.88331610  8.13843750
   9.11978840  2.91913410 13.31942300
  11.18317940  7.32582910 10.29192600
  11.23785690  7.36164710 15.47291150
   2.54421110  1.66665090  3.50301250
   2.59888860  1.70246890  8.68399800
   4.66227960  6.10916390  5.65650100
   4.71695710  6.14498190 10.83748650
   7.26249910  1.70246890  5.65650050
   7.31717660  1.73828690 10.83748600
   9.38056760  6.14498190  7.80998900
   9.43524510  6.18079990 12.99097450
 


--------------------------------------------------------------------------------------------------------


 k-point   1 :   0.0000 0.0000 0.0000  plane waves:   36171
 k-point   2 :   0.5000 0.0000 0.0000  plane waves:   36208
 k-point   3 :   0.0000 0.5000 0.0000  plane waves:   36188
 k-point   4 :   0.5000 0.5000 0.0000  plane waves:   36166
 k-point   5 :   0.0000 0.0000 0.5000  plane waves:   36146
 k-point   6 :   0.5000 0.0000 0.5000  plane waves:   36120
 k-point   7 :   0.0000 0.5000 0.5000  plane waves:   36216
 k-point   8 :   0.5000 0.5000 0.5000  plane waves:   36122

 maximum and minimum number of plane-waves per node :     36216    36120

 maximum number of plane-waves:     36216
 maximum index in each direction: 
   IXMAX=   22   IYMAX=   23   IZMAX=   22
   IXMIN=  -22   IYMIN=  -23   IZMIN=  -22


 serial   3D FFT for wavefunctions
 parallel 3D FFT for charge:
    minimum data exchange during FFTs selected (reduces bandwidth)


 total amount of memory used by VASP MPI-rank0  1786243. kBytes
=======================================================================

   base      :      30000. kBytes
   nonlr-proj:      52712. kBytes
   fftplans  :     213988. kBytes
   grid      :     382371. kBytes
   one-center:        344. kBytes
   wavefun   :    1106828. kBytes
 
     INWAV:  cpu time    0.0002: real time    0.0003
 Broyden mixing: mesh for mixing (old mesh)
   NGX = 45   NGY = 47   NGZ = 45
  (NGX  =180   NGY  =192   NGZ  =180)
  gives a total of  95175 points

 initial charge density was supplied:
 charge density of overlapping atoms calculated
 number of electron     352.0000000 magnetization 
 keeping initial charge density in first step


--------------------------------------------------------------------------------------------------------


 Maximum index for non-local projection operator          5460
 Maximum index for augmentation-charges         13690 (set IRDMAX)


--------------------------------------------------------------------------------------------------------


 First call to EWALD:  gamma=   0.186
 Maximum number of real-space cells 3x 3x 3
 Maximum number of reciprocal cells 3x 3x 3

    FEWALD:  cpu time    0.0752: real time    0.0751


--------------------------------------- Iteration      1(   1)  ---------------------------------------


    POTLOK:  cpu time    0.1461: real time    0.1464
    SETDIJ:  cpu time    0.1214: real time    0.1214
     EDDAV:  cpu time    6.3743: real time    6.3739
 BZINTS: Fermi energy:   16.377727;  352.000000 electrons
         Band energy: 0.124751E+04;  BLOECHL correction:   -0.012894
       DOS:  cpu time    0.0234: real time    0.0234
    --------------------------------------------
      LOOP:  cpu time    6.6652: real time    6.6651

 eigenvalue-minimisations  :  3728
 total energy-change (2. order) : 0.1392350E+04  (-0.1979847E+05)
 number of electron     352.0000000 magnetization 
 augmentation part      352.0000000 magnetization 

 Free energy of the ion-electron system (eV)
  ---------------------------------------------------
  alpha Z        PSCENC =      1035.67788958
  Ewald energy   TEWEN  =     -9949.87849840
  -Hartree energ DENC   =     -1102.71393015
  -exchange      EXHF   =         0.00000000
  -V(xc)+E(xc)   XCENC  =       901.99909131
  PAW double counting   =      5912.33983061    -5839.33960861
  entropy T*S    EENTRO =         0.00000000
  eigenvalues    EBANDS =      1247.51024947
  atomic energy  EATOM  =      9186.75495500
  Solvation  Ediel_sol  =         0.00000000
  ---------------------------------------------------
  free energy    TOTEN  =      1392.34997881 eV

  energy without entropy =     1392.34997881  energy(sigma->0) =     1392.34997881


--------------------------------------------------------------------------------------------------------




--------------------------------------- Iteration      1(   2)  ---------------------------------------


     EDDAV:  cpu time    7.4096: real time    7.4081
 BZINTS: Fermi energy:    4.070636;  352.000000 electrons
         Band energy:-0.839275E+03;  BLOECHL correction:   -0.028632
       DOS:  cpu time    0.0274: real time    0.0273
    --------------------------------------------
      LOOP:  cpu time    7.4369: real time    7.4355

 eigenvalue-minimisations  :  4608
 total energy-change (2. order) :-0.2086785E+04  (-0.1967876E+04)
 number of electron     352.0000000 magnetization 
 augmentation part      352.0000000 magnetization 

 Free energy of the ion-electron system (eV)
  ---------------------------------------------------
  alpha Z        PSCENC =      1035.67788958
  Ewald energy   TEWEN  =     -9949.87849840
  -Hartree energ DENC   =     -1102.71393015
  -exchange      EXHF   =         0.00000000
  -V(xc)+E(xc)   XCENC  =       901.99909131
  PAW double counting   =      5912.33983061    -5839.33960861
  entropy T*S    EENTRO =         0.00000000
  eigenvalues    EBANDS =      -839.27489984
  atomic energy  EATOM  =      9186.75495500
  Solvation  Ediel_sol  =         0.00000000
  ---------------------------------------------------
  free energy    TOTEN  =      -694.43517050 eV

  energy without entropy =     -694.43517050  energy(sigma->0) =     -694.43517050


--------------------------------------------------------------------------------------------------------




--------------------------------------- Iteration      1(   3)  ---------------------------------------


     EDDAV:  cpu time    7.2559: real time    7.2553
 BZINTS: Fermi energy:    3.165014;  352.000000 electrons
         Band energy:-0.969727E+03;  BLOECHL correction:    0.000000
       DOS:  cpu time    0.0240: real time    0.0240
    --------------------------------------------
      LOOP:  cpu time    7.2799: real time    7.2793

 eigenvalue-minimisations  :  4472
 total energy-change (2. order) :-0.1304518E+03  (-0.1265734E+03)
 number of electron     352.0000000 magnetization 
 augmentation part      352.0000000 magnetization 

 Free energy of the ion-electron system (eV)
  ---------------------------------------------------
  alpha Z        PSCENC =      1035.67788958
  Ewald energy   TEWEN  =     -9949.87849840
  -Hartree energ DENC   =     -1102.71393015
  -exchange      EXHF   =         0.00000000
  -V(xc)+E(xc)   XCENC  =       901.99909131
  PAW double counting   =      5912.33983061    -5839.33960861
  entropy T*S    EENTRO =         0.00000000
  eigenvalues    EBANDS =      -969.72669583
  atomic energy  EATOM  =      9186.75495500
  Solvation  Ediel_sol  =         0.00000000
  ---------------------------------------------------
  free energy    TOTEN  =      -824.88696649 eV

  energy without entropy =     -824.88696649  energy(sigma->0) =     -824.88696649


--------------------------------------------------------------------------------------------------------




--------------------------------------- Iteration      1(   4)  ---------------------------------------


     EDDAV:  cpu time    7.1781: real time    7.1757
 BZINTS: Fermi energy:    3.141361;  352.000000 electrons
         Band energy:-0.972779E+03;  BLOECHL correction:   -0.000000
       DOS:  cpu time    0.0244: real time    0.0244
    --------------------------------------------
      LOOP:  cpu time    7.2025: real time    7.2002

 eigenvalue-minimisations  :  4400
 total energy-change (2. order) :-0.3052588E+01  (-0.3033132E+01)
 number of electron     352.0000000 magnetization 
 augmentation part      352.0000000 magnetization 

 Free energy of the ion-electron system (eV)
  ---------------------------------------------------
  alpha Z        PSCENC =      1035.67788958
  Ewald energy   TEWEN  =     -9949.87849840
  -Hartree energ DENC   =     -1102.71393015
  -exchange      EXHF   =         0.00000000
  -V(xc)+E(xc)   XCENC  =       901.99909131
  PAW double counting   =      5912.33983061    -5839.33960861
  entropy T*S    EENTRO =         0.00000000
  eigenvalues    EBANDS =      -972.77928367
  atomic energy  EATOM  =      9186.75495500
  Solvation  Ediel_sol  =         0.00000000
  ---------------------------------------------------
  free energy    TOTEN  =      -827.93955434 eV

  energy without entropy =     -827.93955434  energy(sigma->0) =     -827.93955434


--------------------------------------------------------------------------------------------------------




--------------------------------------- Iteration      1(   5)  ---------------------------------------


     EDDAV:  cpu time    7.2316: real time    7.2314
 BZINTS: Fermi energy:    3.140125;  352.000000 electrons
         Band energy:-0.972868E+03;  BLOECHL correction:   -0.000000
       DOS:  cpu time    0.0288: real time    0.0288
    CHARGE:  cpu time    1.7436: real time    1.7432
    MIXING:  cpu time    0.0613: real time    0.0612
    --------------------------------------------
      LOOP:  cpu time    9.0654: real time    9.0646

 eigenvalue-minimisations  :  4456
 total energy-change (2. order) :-0.8897464E-01  (-0.8880012E-01)
 number of electron     351.9999996 magnetization 
 augmentation part        0.7330184 magnetization 

 Broyden mixing:
  rms(total) = 0.40130E+01    rms(broyden)= 0.40129E+01
  rms(prec ) = 0.53784E+01
  weight for this iteration     100.00

 Free energy of the ion-electron system (eV)
  ---------------------------------------------------
  alpha Z        PSCENC =      1035.67788958
  Ewald energy   TEWEN  =     -9949.87849840
  -Hartree energ DENC   =     -1102.71393015
  -exchange      EXHF   =         0.00000000
  -V(xc)+E(xc)   XCENC  =       901.99909131
  PAW double counting   =      5912.33983061    -5839.33960861
  entropy T*S    EENTRO =         0.00000000
  eigenvalues    EBANDS =      -972.86825832
  atomic energy  EATOM  =      9186.75495500
  Solvation  Ediel_sol  =         0.00000000
  ---------------------------------------------------
  free energy    TOTEN  =      -828.02852898 eV

  energy without entropy =     -828.02852898  energy(sigma->0) =     -828.02852898


--------------------------------------------------------------------------------------------------------




--------------------------------------- Iteration      1(   6)  ---------------------------------------


    POTLOK:  cpu time    0.1392: real time    0.1393
    SETDIJ:  cpu time    0.1202: real time    0.1201
    EDDIAG:  cpu time    1.3632: real time    1.3632
  RMM-DIIS:  cpu time    5.7337: real time    5.6944
    ORTHCH:  cpu time    0.0350: real time    0.0349
 BZINTS: Fermi energy:    3.805226;  352.000000 electrons
         Band energy:-0.735607E+03;  BLOECHL correction:   -0.042535
       DOS:  cpu time    0.0299: real time    0.0299
    CHARGE:  cpu time    1.7175: real time    1.7172
    MIXING:  cpu time    0.0783: real time    0.0784
    --------------------------------------------
      LOOP:  cpu time    9.2170: real time    9.1774

 eigenvalue-minimisations  :  3728
 total energy-change (2. order) : 0.3977019E+02  (-0.3682197E+01)
 number of electron     351.9999996 magnetization 
 augmentation part        0.6273845 magnetization 

 Broyden mixing:
  rms(total) = 0.22461E+01    rms(broyden)= 0.22461E+01
  rms(prec ) = 0.28724E+01
  weight for this iteration     100.00

 eigenvalues of (default mixing * dielectric matrix)
  average eigenvalue GAMMA=   2.1452
  2.1452

 Free energy of the ion-electron system (eV)
  ---------------------------------------------------
  alpha Z        PSCENC =      1035.67788958
  Ewald energy   TEWEN  =     -9949.87849840
  -Hartree energ DENC   =     -1307.44809644
  -exchange      EXHF   =         0.00000000
  -V(xc)+E(xc)   XCENC  =       914.72835308
  PAW double counting   =     13724.97130818   -13657.45773990
  entropy T*S    EENTRO =         0.00000000
  eigenvalues    EBANDS =      -735.60651037
  atomic energy  EATOM  =      9186.75495500
  Solvation  Ediel_sol  =         0.00000000
  ---------------------------------------------------
  free energy    TOTEN  =      -788.25833927 eV

  energy without entropy =     -788.25833927  energy(sigma->0) =     -788.25833927


--------------------------------------------------------------------------------------------------------




--------------------------------------- Iteration      1(   7)  ---------------------------------------


    POTLOK:  cpu time    0.1334: real time    0.1334
    SETDIJ:  cpu time    0.1153: real time    0.1154
    EDDIAG:  cpu time    1.3638: real time    1.3637
  RMM-DIIS:  cpu time    5.7391: real time    5.6907
    ORTHCH:  cpu time    0.0348: real time    0.0347
 BZINTS: Fermi energy:    4.619401;  352.000000 electrons
         Band energy:-0.495713E+03;  BLOECHL correction:   -0.021057
       DOS:  cpu time    0.0308: real time    0.0308
    CHARGE:  cpu time    1.7359: real time    1.7355
    MIXING:  cpu time    0.0627: real time    0.0626
    --------------------------------------------
      LOOP:  cpu time    9.2157: real time    9.1669

 eigenvalue-minimisations  :  3728
 total energy-change (2. order) : 0.1144975E+02  (-0.4357623E+01)
 number of electron     351.9999996 magnetization 
 augmentation part        0.4305643 magnetization 

 Broyden mixing:
  rms(total) = 0.49795E+00    rms(broyden)= 0.49795E+00
  rms(prec ) = 0.60009E+00
  weight for this iteration     100.00

 eigenvalues of (default mixing * dielectric matrix)
  average eigenvalue GAMMA=   1.7359
  1.3226  2.1492

 Free energy of the ion-electron system (eV)
  ---------------------------------------------------
  alpha Z        PSCENC =      1035.67788958
  Ewald energy   TEWEN  =     -9949.87849840
  -Hartree energ DENC   =     -1547.92534263
  -exchange      EXHF   =         0.00000000
  -V(xc)+E(xc)   XCENC  =       932.09840236
  PAW double counting   =     28458.51923883   -28396.34238074
  entropy T*S    EENTRO =         0.00000000
  eigenvalues    EBANDS =      -495.71284994
  atomic energy  EATOM  =      9186.75495500
  Solvation  Ediel_sol  =         0.00000000
  ---------------------------------------------------
  free energy    TOTEN  =      -776.80858594 eV

  energy without entropy =     -776.80858594  energy(sigma->0) =     -776.80858594


--------------------------------------------------------------------------------------------------------




--------------------------------------- Iteration      1(   8)  ---------------------------------------


    POTLOK:  cpu time    0.1376: real time    0.1377
    SETDIJ:  cpu time    0.1152: real time    0.1151
    EDDIAG:  cpu time    1.3676: real time    1.3675
  RMM-DIIS:  cpu time    5.7378: real time    5.6884
    ORTHCH:  cpu time    0.0353: real time    0.0353
 BZINTS: Fermi energy:    4.580264;  352.000000 electrons
         Band energy:-0.496982E+03;  BLOECHL correction:   -0.062720
       DOS:  cpu time    0.0289: real time    0.0289
    CHARGE:  cpu time    1.6973: real time    1.6970
    MIXING:  cpu time    0.0637: real time    0.0637
    --------------------------------------------
      LOOP:  cpu time    9.1835: real time    9.1337

 eigenvalue-minimisations  :  3728
 total energy-change (2. order) :-0.1191078E+00  (-0.3758174E+00)
 number of electron     351.9999996 magnetization 
 augmentation part        0.3864294 magnetization 

 Broyden mixing:
  rms(total) = 0.24939E+00    rms(broyden)= 0.24939E+00
  rms(prec ) = 0.28461E+00
  weight for this iteration     100.00

 eigenvalues of (default mixing * dielectric matrix)
  average eigenvalue GAMMA=   1.7651
  1.1911  2.4143  1.6899

 Free energy of the ion-electron system (eV)
  ---------------------------------------------------
  alpha Z        PSCENC =      1035.67788958
  Ewald energy   TEWEN  =     -9949.87849840
  -Hartree energ DENC   =     -1547.76570468
  -exchange      EXHF   =         0.00000000
  -V(xc)+E(xc)   XCENC  =       932.97623615
  PAW double counting   =     31307.08035986   -31244.79093008
  entropy T*S    EENTRO =         0.00000000
  eigenvalues    EBANDS =      -496.98200118
  atomic energy  EATOM  =      9186.75495500
  Solvation  Ediel_sol  =         0.00000000
  ---------------------------------------------------
  free energy    TOTEN  =      -776.92769375 eV

  energy without entropy =     -776.92769375  energy(sigma->0) =     -776.92769375


--------------------------------------------------------------------------------------------------------




--------------------------------------- Iteration      1(   9)  ---------------------------------------


    POTLOK:  cpu time    0.1320: real time    0.1321
    SETDIJ:  cpu time    0.1249: real time    0.1249
    EDDIAG:  cpu time    1.3642: real time    1.3640
  RMM-DIIS:  cpu time    5.7762: real time    5.7320
    ORTHCH:  cpu time    0.0349: real time    0.0349
 BZINTS: Fermi energy:    4.579530;  352.000000 electrons
         Band energy:-0.491532E+03;  BLOECHL correction:   -0.066105
       DOS:  cpu time    0.0312: real time    0.0312
    CHARGE:  cpu time    1.7075: real time    1.7072
    MIXING:  cpu time    0.0787: real time    0.0787
    --------------------------------------------
      LOOP:  cpu time    9.2498: real time    9.2050

 eigenvalue-minimisations  :  3757
 total energy-change (2. order) :-0.6723356E-01  (-0.6789908E-01)
 number of electron     351.9999996 magnetization 
 augmentation part        0.3627477 magnetization 

 Broyden mixing:
  rms(total) = 0.94247E-01    rms(broyden)= 0.94246E-01
  rms(prec ) = 0.12007E+00
  weight for this iteration     100.00

 eigenvalues of (default mixing * dielectric matrix)
  average eigenvalue GAMMA=   1.6787
  2.2052  2.2052  1.0583  1.2462

 Free energy of the ion-electron system (eV)
  ---------------------------------------------------
  alpha Z        PSCENC =      1035.67788958
  Ewald energy   TEWEN  =     -9949.87849840
  -Hartree energ DENC   =     -1554.21655325
  -exchange      EXHF   =         0.00000000
  -V(xc)+E(xc)   XCENC  =       933.85219982
  PAW double counting   =     33512.78413481   -33450.43723978
  entropy T*S    EENTRO =         0.00000000
  eigenvalues    EBANDS =      -491.53181510
  atomic energy  EATOM  =      9186.75495500
  Solvation  Ediel_sol  =         0.00000000
  ---------------------------------------------------
  free energy    TOTEN  =      -776.99492731 eV

  energy without entropy =     -776.99492731  energy(sigma->0) =     -776.99492731


--------------------------------------------------------------------------------------------------------




--------------------------------------- Iteration      1(  10)  ---------------------------------------


    POTLOK:  cpu time    0.1324: real time    0.1324
    SETDIJ:  cpu time    0.1166: real time    0.1166
    EDDIAG:  cpu time    1.3603: real time    1.3602
  RMM-DIIS:  cpu time    5.7596: real time    5.7147
    ORTHCH:  cpu time    0.0348: real time    0.0348
 BZINTS: Fermi energy:    4.573665;  352.000000 electrons
         Band energy:-0.495875E+03;  BLOECHL correction:   -0.060048
       DOS:  cpu time    0.0313: real time    0.0313
    CHARGE:  cpu time    1.7470: real time    1.7469
    MIXING:  cpu time    0.0676: real time    0.0676
    --------------------------------------------
      LOOP:  cpu time    9.2497: real time    9.2044

 eigenvalue-minimisations  :  3738
 total energy-change (2. order) : 0.8885169E-02  (-0.1213797E-01)
 number of electron     351.9999996 magnetization 
 augmentation part        0.3537072 magnetization 

 Broyden mixing:
  rms(total) = 0.45531E-01    rms(broyden)= 0.45530E-01
  rms(prec ) = 0.56668E-01
  weight for this iteration     100.00

 eigenvalues of (default mixing * dielectric matrix)
  average eigenvalue GAMMA=   1.5905
  2.4472  2.4472  1.1610  1.1610  0.7360

 Free energy of the ion-electron system (eV)
  ---------------------------------------------------
  alpha Z        PSCENC =      1035.67788958
  Ewald energy   TEWEN  =     -9949.87849840
  -Hartree energ DENC   =     -1549.71522376
  -exchange      EXHF   =         0.00000000
  -V(xc)+E(xc)   XCENC  =       933.50140138
  PAW double counting   =     33544.76470070   -33482.21641575
  entropy T*S    EENTRO =         0.00000000
  eigenvalues    EBANDS =      -495.87485090
  atomic energy  EATOM  =      9186.75495500
  Solvation  Ediel_sol  =         0.00000000
  ---------------------------------------------------
  free energy    TOTEN  =      -776.98604214 eV

  energy without entropy =     -776.98604214  energy(sigma->0) =     -776.98604214


--------------------------------------------------------------------------------------------------------




--------------------------------------- Iteration      1(  11)  ---------------------------------------


    POTLOK:  cpu time    0.1385: real time    0.1386
    SETDIJ:  cpu time    0.1209: real time    0.1209
    EDDIAG:  cpu time    1.3599: real time    1.3599
  RMM-DIIS:  cpu time    5.8056: real time    5.7610
    ORTHCH:  cpu time    0.0347: real time    0.0347
 BZINTS: Fermi energy:    4.567690;  352.000000 electrons
         Band energy:-0.497063E+03;  BLOECHL correction:   -0.065554
       DOS:  cpu time    0.0304: real time    0.0304
    CHARGE:  cpu time    1.7105: real time    1.7101
    MIXING:  cpu time    0.0671: real time    0.0671
    --------------------------------------------
      LOOP:  cpu time    9.2677: real time    9.2225

 eigenvalue-minimisations  :  3774
 total energy-change (2. order) :-0.8066452E-02  (-0.2916097E-02)
 number of electron     351.9999996 magnetization 
 augmentation part        0.3535227 magnetization 

 Broyden mixing:
  rms(total) = 0.19977E-01    rms(broyden)= 0.19976E-01
  rms(prec ) = 0.30208E-01
  weight for this iteration     100.00

 eigenvalues of (default mixing * dielectric matrix)
  average eigenvalue GAMMA=   1.4662
  2.3835  2.3835  1.2852  1.2852  0.8826  0.5770

 Free energy of the ion-electron system (eV)
  ---------------------------------------------------
  alpha Z        PSCENC =      1035.67788958
  Ewald energy   TEWEN  =     -9949.87849840
  -Hartree energ DENC   =     -1548.59631548
  -exchange      EXHF   =         0.00000000
  -V(xc)+E(xc)   XCENC  =       933.48994426
  PAW double counting   =     33799.34076238   -33736.71990253
  entropy T*S    EENTRO =         0.00000000
  eigenvalues    EBANDS =      -497.06294340
  atomic energy  EATOM  =      9186.75495500
  Solvation  Ediel_sol  =         0.00000000
  ---------------------------------------------------
  free energy    TOTEN  =      -776.99410859 eV

  energy without entropy =     -776.99410859  energy(sigma->0) =     -776.99410859


--------------------------------------------------------------------------------------------------------




--------------------------------------- Iteration      1(  12)  ---------------------------------------


    POTLOK:  cpu time    0.1332: real time    0.1333
    SETDIJ:  cpu time    0.1155: real time    0.1155
    EDDIAG:  cpu time    1.3651: real time    1.3651
  RMM-DIIS:  cpu time    5.8120: real time    5.7634
    ORTHCH:  cpu time    0.0348: real time    0.0348
 BZINTS: Fermi energy:    4.573624;  352.000000 electrons
         Band energy:-0.495559E+03;  BLOECHL correction:   -0.062066
       DOS:  cpu time    0.0307: real time    0.0307
    CHARGE:  cpu time    1.7113: real time    1.7108
    MIXING:  cpu time    0.0673: real time    0.0673
    --------------------------------------------
      LOOP:  cpu time    9.2700: real time    9.2209

 eigenvalue-minimisations  :  3770
 total energy-change (2. order) : 0.1869431E-02  (-0.7736249E-03)
 number of electron     351.9999996 magnetization 
 augmentation part        0.3487360 magnetization 

 Broyden mixing:
  rms(total) = 0.26147E-01    rms(broyden)= 0.26147E-01
  rms(prec ) = 0.38450E-01
  weight for this iteration     100.00

 eigenvalues of (default mixing * dielectric matrix)
  average eigenvalue GAMMA=   1.5040
  2.2523  2.2523  1.8187  1.8187  0.9849  0.9849  0.4161

 Free energy of the ion-electron system (eV)
  ---------------------------------------------------
  alpha Z        PSCENC =      1035.67788958
  Ewald energy   TEWEN  =     -9949.87849840
  -Hartree energ DENC   =     -1550.17374959
  -exchange      EXHF   =         0.00000000
  -V(xc)+E(xc)   XCENC  =       933.58728580
  PAW double counting   =     33855.43058855   -33792.83210799
  entropy T*S    EENTRO =         0.00000000
  eigenvalues    EBANDS =      -495.55860211
  atomic energy  EATOM  =      9186.75495500
  Solvation  Ediel_sol  =         0.00000000
  ---------------------------------------------------
  free energy    TOTEN  =      -776.99223916 eV

  energy without entropy =     -776.99223916  energy(sigma->0) =     -776.99223916


--------------------------------------------------------------------------------------------------------




--------------------------------------- Iteration      1(  13)  ---------------------------------------


    POTLOK:  cpu time    0.1319: real time    0.1321
    SETDIJ:  cpu time    0.1153: real time    0.1155
    EDDIAG:  cpu time    1.3671: real time    1.3669
  RMM-DIIS:  cpu time    5.7404: real time    5.6878
    ORTHCH:  cpu time    0.0352: real time    0.0352
 BZINTS: Fermi energy:    4.571940;  352.000000 electrons
         Band energy:-0.495594E+03;  BLOECHL correction:   -0.065868
       DOS:  cpu time    0.0341: real time    0.0341
    CHARGE:  cpu time    1.7098: real time    1.7093
    MIXING:  cpu time    0.0725: real time    0.0725
    --------------------------------------------
      LOOP:  cpu time    9.2063: real time    9.1534

 eigenvalue-minimisations  :  3728
 total energy-change (2. order) :-0.3104861E-02  (-0.4019826E-03)
 number of electron     351.9999996 magnetization 
 augmentation part        0.3505254 magnetization 

 Broyden mixing:
  rms(total) = 0.18899E-01    rms(broyden)= 0.18898E-01
  rms(prec ) = 0.28570E-01
  weight for this iteration     100.00

 eigenvalues of (default mixing * dielectric matrix)
  average eigenvalue GAMMA=   1.4832
  2.6454  2.6454  1.7228  1.3034  1.3034  0.9409  0.9409  0.3635

 Free energy of the ion-electron system (eV)
  ---------------------------------------------------
  alpha Z        PSCENC =      1035.67788958
  Ewald energy   TEWEN  =     -9949.87849840
  -Hartree energ DENC   =     -1550.15301607
  -exchange      EXHF   =         0.00000000
  -V(xc)+E(xc)   XCENC  =       933.60126415
  PAW double counting   =     33827.93109867   -33765.33534484
  entropy T*S    EENTRO =         0.00000000
  eigenvalues    EBANDS =      -495.59369211
  atomic energy  EATOM  =      9186.75495500
  Solvation  Ediel_sol  =         0.00000000
  ---------------------------------------------------
  free energy    TOTEN  =      -776.99534402 eV

  energy without entropy =     -776.99534402  energy(sigma->0) =     -776.99534402


--------------------------------------------------------------------------------------------------------




--------------------------------------- Iteration      1(  14)  ---------------------------------------


    POTLOK:  cpu time    0.1337: real time    0.1339
    SETDIJ:  cpu time    0.1241: real time    0.1240
    EDDIAG:  cpu time    1.3668: real time    1.3668
  RMM-DIIS:  cpu time    5.7794: real time    5.7322
    ORTHCH:  cpu time    0.0348: real time    0.0348
 BZINTS: Fermi energy:    4.573042;  352.000000 electrons
         Band energy:-0.495557E+03;  BLOECHL correction:   -0.065051
       DOS:  cpu time    0.0307: real time    0.0307
    CHARGE:  cpu time    1.7469: real time    1.7465
    MIXING:  cpu time    0.0793: real time    0.0793
    --------------------------------------------
      LOOP:  cpu time    9.2956: real time    9.2482

 eigenvalue-minimisations  :  3747
 total energy-change (2. order) : 0.1425028E-02  (-0.8569292E-04)
 number of electron     351.9999996 magnetization 
 augmentation part        0.3503089 magnetization 

 Broyden mixing:
  rms(total) = 0.13888E-01    rms(broyden)= 0.13888E-01
  rms(prec ) = 0.20217E-01
  weight for this iteration     100.00

 eigenvalues of (default mixing * dielectric matrix)
  average eigenvalue GAMMA=   1.5166
  2.6557  2.6557  1.9146  1.9146  1.1135  1.1135  0.9510  0.9510  0.3798

 Free energy of the ion-electron system (eV)
  ---------------------------------------------------
  alpha Z        PSCENC =      1035.67788958
  Ewald energy   TEWEN  =     -9949.87849840
  -Hartree energ DENC   =     -1550.19665827
  -exchange      EXHF   =         0.00000000
  -V(xc)+E(xc)   XCENC  =       933.59822230
  PAW double counting   =     33845.36261633   -33782.75525340
  entropy T*S    EENTRO =         0.00000000
  eigenvalues    EBANDS =      -495.55719213
  atomic energy  EATOM  =      9186.75495500
  Solvation  Ediel_sol  =         0.00000000
  ---------------------------------------------------
  free energy    TOTEN  =      -776.99391900 eV

  energy without entropy =     -776.99391900  energy(sigma->0) =     -776.99391900


--------------------------------------------------------------------------------------------------------




--------------------------------------- Iteration      1(  15)  ---------------------------------------


    POTLOK:  cpu time    0.1380: real time    0.1395
    SETDIJ:  cpu time    0.1151: real time    0.1150
    EDDIAG:  cpu time    1.3656: real time    1.3654
  RMM-DIIS:  cpu time    5.7631: real time    5.7144
    ORTHCH:  cpu time    0.0352: real time    0.0352
 BZINTS: Fermi energy:    4.573939;  352.000000 electrons
         Band energy:-0.495338E+03;  BLOECHL correction:   -0.064112
       DOS:  cpu time    0.0364: real time    0.0364
    CHARGE:  cpu time    1.7111: real time    1.7107
    MIXING:  cpu time    0.0713: real time    0.0712
    --------------------------------------------
      LOOP:  cpu time    9.2357: real time    9.1879

 eigenvalue-minimisations  :  3749
 total energy-change (2. order) : 0.5400452E-03  (-0.3699662E-04)
 number of electron     351.9999996 magnetization 
 augmentation part        0.3470405 magnetization 

 Broyden mixing:
  rms(total) = 0.21492E-01    rms(broyden)= 0.21491E-01
  rms(prec ) = 0.31392E-01
  weight for this iteration     100.00

 eigenvalues of (default mixing * dielectric matrix)
  average eigenvalue GAMMA=   1.4327
  2.7927  2.5215  1.9226  1.9226  1.2125  1.2125  0.8612  0.8612  0.6232  0.3975

 Free energy of the ion-electron system (eV)
  ---------------------------------------------------
  alpha Z        PSCENC =      1035.67788958
  Ewald energy   TEWEN  =     -9949.87849840
  -Hartree energ DENC   =     -1550.42708808
  -exchange      EXHF   =         0.00000000
  -V(xc)+E(xc)   XCENC  =       933.61352186
  PAW double counting   =     33848.24515890   -33785.64157949
  entropy T*S    EENTRO =         0.00000000
  eigenvalues    EBANDS =      -495.33773831
  atomic energy  EATOM  =      9186.75495500
  Solvation  Ediel_sol  =         0.00000000
  ---------------------------------------------------
  free energy    TOTEN  =      -776.99337895 eV

  energy without entropy =     -776.99337895  energy(sigma->0) =     -776.99337895


--------------------------------------------------------------------------------------------------------




--------------------------------------- Iteration      1(  16)  ---------------------------------------


    POTLOK:  cpu time    0.1327: real time    0.1327
    SETDIJ:  cpu time    0.1241: real time    0.1240
    EDDIAG:  cpu time    1.3572: real time    1.3572
  RMM-DIIS:  cpu time    5.7381: real time    5.6977
    ORTHCH:  cpu time    0.0350: real time    0.0350
 BZINTS: Fermi energy:    4.573786;  352.000000 electrons
         Band energy:-0.495347E+03;  BLOECHL correction:   -0.064900
       DOS:  cpu time    0.0315: real time    0.0315
    CHARGE:  cpu time    1.7071: real time    1.7067
    MIXING:  cpu time    0.0734: real time    0.0733
    --------------------------------------------
      LOOP:  cpu time    9.1991: real time    9.1582

 eigenvalue-minimisations  :  3733
 total energy-change (2. order) :-0.3922642E-03  (-0.8167318E-05)
 number of electron     351.9999996 magnetization 
 augmentation part        0.3499720 magnetization 

 Broyden mixing:
  rms(total) = 0.12612E-01    rms(broyden)= 0.12611E-01
  rms(prec ) = 0.18308E-01
  weight for this iteration     100.00

 eigenvalues of (default mixing * dielectric matrix)
  average eigenvalue GAMMA=   1.4018
  3.0322  2.5312  2.0001  2.0001  1.1171  1.1171  0.9783  0.9783  0.8197  0.4227
  0.4227

 Free energy of the ion-electron system (eV)
  ---------------------------------------------------
  alpha Z        PSCENC =      1035.67788958
  Ewald energy   TEWEN  =     -9949.87849840
  -Hartree energ DENC   =     -1550.41847171
  -exchange      EXHF   =         0.00000000
  -V(xc)+E(xc)   XCENC  =       933.61497141
  PAW double counting   =     33846.77471701   -33784.17190629
  entropy T*S    EENTRO =         0.00000000
  eigenvalues    EBANDS =      -495.34742781
  atomic energy  EATOM  =      9186.75495500
  Solvation  Ediel_sol  =         0.00000000
  ---------------------------------------------------
  free energy    TOTEN  =      -776.99377121 eV

  energy without entropy =     -776.99377121  energy(sigma->0) =     -776.99377121


--------------------------------------------------------------------------------------------------------




--------------------------------------- Iteration      1(  17)  ---------------------------------------


    POTLOK:  cpu time    0.1322: real time    0.1322
    SETDIJ:  cpu time    0.1151: real time    0.1150
    EDDIAG:  cpu time    1.3615: real time    1.3614
  RMM-DIIS:  cpu time    5.9916: real time    5.9399
    ORTHCH:  cpu time    0.0353: real time    0.0353
 BZINTS: Fermi energy:    4.573953;  352.000000 electrons
         Band energy:-0.495312E+03;  BLOECHL correction:   -0.064647
       DOS:  cpu time    0.0357: real time    0.0356
    CHARGE:  cpu time    1.7264: real time    1.7258
    MIXING:  cpu time    0.0779: real time    0.0779
    --------------------------------------------
      LOOP:  cpu time    9.4756: real time    9.4232

 eigenvalue-minimisations  :  3877
 total energy-change (2. order) : 0.1436214E-03  (-0.1819967E-05)
 number of electron     351.9999996 magnetization 
 augmentation part        0.3468603 magnetization 

 Broyden mixing:
  rms(total) = 0.20302E-01    rms(broyden)= 0.20302E-01
  rms(prec ) = 0.29524E-01
  weight for this iteration     100.00

 eigenvalues of (default mixing * dielectric matrix)
  average eigenvalue GAMMA=   1.4004
[...]
   0.949E+01 0.592E+01 0.450E+02   -.959E+01 -.599E+01 -.501E+02   0.984E-01 0.667E-01 0.509E+01   0.743E-06 0.141E-04 -.396E-05
   0.949E+01 0.592E+01 0.450E+02   -.959E+01 -.599E+01 -.501E+02   0.984E-01 0.667E-01 0.509E+01   0.743E-06 0.141E-04 -.396E-05
   0.199E+02 0.324E+02 0.265E+02   -.216E+02 -.367E+02 -.287E+02   0.176E+01 0.429E+01 0.217E+01   -.944E-05 0.543E-05 0.115E-04
   0.199E+02 0.324E+02 0.265E+02   -.216E+02 -.367E+02 -.287E+02   0.176E+01 0.429E+01 0.217E+01   -.944E-05 0.543E-05 0.115E-04
   0.199E+02 0.324E+02 0.265E+02   -.216E+02 -.367E+02 -.287E+02   0.176E+01 0.429E+01 0.217E+01   -.944E-05 0.543E-05 0.115E-04
   0.199E+02 0.324E+02 0.265E+02   -.216E+02 -.367E+02 -.287E+02   0.176E+01 0.429E+01 0.217E+01   -.944E-05 0.543E-05 0.115E-04
   0.199E+02 0.324E+02 0.265E+02   -.216E+02 -.367E+02 -.287E+02   0.176E+01 0.429E+01 0.217E+01   -.944E-05 0.543E-05 0.115E-04
   0.199E+02 0.324E+02 0.265E+02   -.216E+02 -.367E+02 -.287E+02   0.176E+01 0.429E+01 0.217E+01   -.944E-05 0.543E-05 0.115E-04
   0.199E+02 0.324E+02 0.265E+02   -.216E+02 -.367E+02 -.287E+02   0.176E+01 0.429E+01 0.217E+01   -.944E-05 0.543E-05 0.115E-04
   0.199E+02 0.324E+02 0.265E+02   -.216E+02 -.367E+02 -.287E+02   0.176E+01 0.429E+01 0.217E+01   -.944E-05 0.543E-05 0.115E-04
   -.379E+02 -.362E+01 -.265E+02   0.425E+02 0.333E+01 0.287E+02   -.461E+01 0.296E+00 -.216E+01   -.234E-05 0.393E-05 -.365E-05
   -.379E+02 -.362E+01 -.265E+02   0.425E+02 0.333E+01 0.287E+02   -.461E+01 0.296E+00 -.216E+01   -.234E-05 0.393E-05 -.365E-05
   -.379E+02 -.362E+01 -.265E+02   0.425E+02 0.333E+01 0.287E+02   -.461E+01 0.296E+00 -.216E+01   -.234E-05 0.393E-05 -.365E-05
   -.379E+02 -.362E+01 -.265E+02   0.425E+02 0.333E+01 0.287E+02   -.461E+01 0.296E+00 -.216E+01   -.234E-05 0.393E-05 -.365E-05
   -.379E+02 -.362E+01 -.265E+02   0.425E+02 0.333E+01 0.287E+02   -.461E+01 0.296E+00 -.216E+01   -.234E-05 0.393E-05 -.365E-05
   -.379E+02 -.362E+01 -.265E+02   0.425E+02 0.333E+01 0.287E+02   -.461E+01 0.296E+00 -.216E+01   -.234E-05 0.393E-05 -.365E-05
   -.379E+02 -.362E+01 -.265E+02   0.425E+02 0.333E+01 0.287E+02   -.461E+01 0.296E+00 -.216E+01   -.234E-05 0.393E-05 -.365E-05
   -.379E+02 -.362E+01 -.265E+02   0.425E+02 0.333E+01 0.287E+02   -.461E+01 0.296E+00 -.216E+01   -.234E-05 0.393E-05 -.365E-05
   -.949E+01 -.592E+01 -.450E+02   0.959E+01 0.599E+01 0.501E+02   -.984E-01 -.667E-01 -.509E+01   -.743E-06 -.141E-04 0.396E-05
   -.949E+01 -.592E+01 -.450E+02   0.959E+01 0.599E+01 0.501E+02   -.984E-01 -.667E-01 -.509E+01   -.743E-06 -.141E-04 0.396E-05
   -.949E+01 -.592E+01 -.450E+02   0.959E+01 0.599E+01 0.501E+02   -.984E-01 -.667E-01 -.509E+01   -.743E-06 -.141E-04 0.396E-05
   -.949E+01 -.592E+01 -.450E+02   0.959E+01 0.599E+01 0.501E+02   -.984E-01 -.667E-01 -.509E+01   -.743E-06 -.141E-04 0.396E-05
   -.949E+01 -.592E+01 -.450E+02   0.959E+01 0.599E+01 0.501E+02   -.984E-01 -.667E-01 -.509E+01   -.743E-06 -.141E-04 0.396E-05
   -.949E+01 -.592E+01 -.450E+02   0.959E+01 0.599E+01 0.501E+02   -.984E-01 -.667E-01 -.509E+01   -.743E-06 -.141E-04 0.396E-05
   -.949E+01 -.592E+01 -.450E+02   0.959E+01 0.599E+01 0.501E+02   -.984E-01 -.667E-01 -.509E+01   -.743E-06 -.141E-04 0.396E-05
   -.949E+01 -.592E+01 -.450E+02   0.959E+01 0.599E+01 0.501E+02   -.984E-01 -.667E-01 -.509E+01   -.743E-06 -.141E-04 0.396E-05
   -.199E+02 -.324E+02 -.265E+02   0.216E+02 0.367E+02 0.287E+02   -.176E+01 -.429E+01 -.217E+01   0.944E-05 -.543E-05 -.115E-04
   -.199E+02 -.324E+02 -.265E+02   0.216E+02 0.367E+02 0.287E+02   -.176E+01 -.429E+01 -.217E+01   0.944E-05 -.543E-05 -.115E-04
   -.199E+02 -.324E+02 -.265E+02   0.216E+02 0.367E+02 0.287E+02   -.176E+01 -.429E+01 -.217E+01   0.944E-05 -.543E-05 -.115E-04
   -.199E+02 -.324E+02 -.265E+02   0.216E+02 0.367E+02 0.287E+02   -.176E+01 -.429E+01 -.217E+01   0.944E-05 -.543E-05 -.115E-04
   -.199E+02 -.324E+02 -.265E+02   0.216E+02 0.367E+02 0.287E+02   -.176E+01 -.429E+01 -.217E+01   0.944E-05 -.543E-05 -.115E-04
   -.199E+02 -.324E+02 -.265E+02   0.216E+02 0.367E+02 0.287E+02   -.176E+01 -.429E+01 -.217E+01   0.944E-05 -.543E-05 -.115E-04
   -.199E+02 -.324E+02 -.265E+02   0.216E+02 0.367E+02 0.287E+02   -.176E+01 -.429E+01 -.217E+01   0.944E-05 -.543E-05 -.115E-04
   -.199E+02 -.324E+02 -.265E+02   0.216E+02 0.367E+02 0.287E+02   -.176E+01 -.429E+01 -.217E+01   0.944E-05 -.543E-05 -.115E-04
   0.165E+02 0.103E+02 0.240E+02   -.169E+02 -.105E+02 -.246E+02   0.419E+00 0.265E+00 0.619E+00   0.193E-04 0.715E-05 -.215E-04
   0.165E+02 0.103E+02 0.240E+02   -.169E+02 -.105E+02 -.246E+02   0.419E+00 0.265E+00 0.619E+00   0.193E-04 0.715E-05 -.215E-04
   0.165E+02 0.103E+02 0.240E+02   -.169E+02 -.105E+02 -.246E+02   0.419E+00 0.265E+00 0.619E+00   0.193E-04 0.715E-05 -.215E-04
   0.165E+02 0.103E+02 0.240E+02   -.169E+02 -.105E+02 -.246E+02   0.419E+00 0.265E+00 0.619E+00   0.193E-04 0.715E-05 -.215E-04
   0.165E+02 0.103E+02 0.240E+02   -.169E+02 -.105E+02 -.246E+02   0.419E+00 0.265E+00 0.619E+00   0.193E-04 0.715E-05 -.215E-04
   0.165E+02 0.103E+02 0.240E+02   -.169E+02 -.105E+02 -.246E+02   0.419E+00 0.265E+00 0.619E+00   0.193E-04 0.715E-05 -.215E-04
   0.165E+02 0.103E+02 0.240E+02   -.169E+02 -.105E+02 -.246E+02   0.419E+00 0.265E+00 0.619E+00   0.193E-04 0.715E-05 -.215E-04
   0.165E+02 0.103E+02 0.240E+02   -.169E+02 -.105E+02 -.246E+02   0.419E+00 0.265E+00 0.619E+00   0.193E-04 0.715E-05 -.215E-04
   -.165E+02 -.103E+02 -.240E+02   0.169E+02 0.105E+02 0.246E+02   -.419E+00 -.265E+00 -.619E+00   -.193E-04 -.715E-05 0.215E-04
   -.165E+02 -.103E+02 -.240E+02   0.169E+02 0.105E+02 0.246E+02   -.419E+00 -.265E+00 -.619E+00   -.193E-04 -.715E-05 0.215E-04
   -.165E+02 -.103E+02 -.240E+02   0.169E+02 0.105E+02 0.246E+02   -.419E+00 -.265E+00 -.619E+00   -.193E-04 -.715E-05 0.215E-04
   -.165E+02 -.103E+02 -.240E+02   0.169E+02 0.105E+02 0.246E+02   -.419E+00 -.265E+00 -.619E+00   -.193E-04 -.715E-05 0.215E-04
   -.165E+02 -.103E+02 -.240E+02   0.169E+02 0.105E+02 0.246E+02   -.419E+00 -.265E+00 -.619E+00   -.193E-04 -.715E-05 0.215E-04
   -.165E+02 -.103E+02 -.240E+02   0.169E+02 0.105E+02 0.246E+02   -.419E+00 -.265E+00 -.619E+00   -.193E-04 -.715E-05 0.215E-04
   -.165E+02 -.103E+02 -.240E+02   0.169E+02 0.105E+02 0.246E+02   -.419E+00 -.265E+00 -.619E+00   -.193E-04 -.715E-05 0.215E-04
   -.165E+02 -.103E+02 -.240E+02   0.169E+02 0.105E+02 0.246E+02   -.419E+00 -.265E+00 -.619E+00   -.193E-04 -.715E-05 0.215E-04
 -----------------------------------------------------------------------------------------------
   -.150E-10 -.216E-10 -.380E-11   -.142E-12 0.853E-13 -.107E-12   -.263E-13 0.705E-14 -.214E-13   0.110E-10 0.110E-10 0.320E-11
 
 
 POSITION                                       TOTAL-FORCE (eV/Angst)
 -----------------------------------------------------------------------------------
      2.94348      3.40899      6.54046         0.004487     -0.001226     -0.003918
      2.99695      3.44428     11.70024         0.004487     -0.001226     -0.003918
      4.69346      7.76563      8.68940         0.004487     -0.001226     -0.003918
      4.74693      7.80093     13.84918         0.004487     -0.001226     -0.003918
      7.62370      3.07235      8.68859         0.004487     -0.001226     -0.003918
      7.67717      3.10765     13.84837         0.004487     -0.001226     -0.003918
      9.37368      7.42900     10.83753         0.004487     -0.001226     -0.003918
      9.42715      7.46429     15.99731         0.004487     -0.001226     -0.003918
      5.16609      3.23036      5.09436         0.005706      0.001418     -0.005460
      5.21955      3.26566     10.25414         0.005706      0.001418     -0.005460
      6.91607      7.58701      7.24330         0.005706      0.001418     -0.005460
      6.96953      7.62230     12.40308         0.005706      0.001418     -0.005460
      9.84630      2.89373      7.24248         0.005706      0.001418     -0.005460
      9.89977      2.92902     12.40226         0.005706      0.001418     -0.005460
     11.59628      7.25037      9.39142         0.005706      0.001418     -0.005460
     11.64975      7.28567     14.55120         0.005706      0.001418     -0.005460
      4.35065      1.15400      6.53954         0.004742      0.002375     -0.002232
      4.40411      1.18929     11.69932         0.004742      0.002375     -0.002232
      6.10063      5.51064      8.68848         0.004742      0.002375     -0.002232
      6.15410      5.54594     13.84826         0.004742      0.002375     -0.002232
      9.03087      0.81736      8.68767         0.004742      0.002375     -0.002232
      9.08433      0.85266     13.84745         0.004742      0.002375     -0.002232
     10.78085      5.17401     10.83661         0.004742      0.002375     -0.002232
     10.83431      5.20930     15.99639         0.004742      0.002375     -0.002232
      3.54018      0.64632      2.91638        -0.004487      0.001226      0.003918
      3.59364      0.68162      8.07616        -0.004487      0.001226      0.003918
      5.29016      5.00296      5.06532        -0.004487      0.001226      0.003918
      5.34363      5.03826     10.22510        -0.004487      0.001226      0.003918
      8.22040      0.30969      5.06451        -0.004487      0.001226      0.003918
      8.27386      0.34498     10.22429        -0.004487      0.001226      0.003918
      9.97038      4.66633      7.21345        -0.004487      0.001226      0.003918
     10.02384      4.70163     12.37323        -0.004487      0.001226      0.003918
      1.31758      0.82494      4.36249        -0.005706     -0.001418      0.005460
      1.37104      0.86024      9.52227        -0.005706     -0.001418      0.005460
      3.06756      5.18159      6.51143        -0.005706     -0.001418      0.005460
      3.12102      5.21689     11.67121        -0.005706     -0.001418      0.005460
      5.99779      0.48831      6.51062        -0.005706     -0.001418      0.005460
      6.05126      0.52361     11.67039        -0.005706     -0.001418      0.005460
      7.74777      4.84495      8.65956        -0.005706     -0.001418      0.005460
      7.80124      4.88025     13.81933        -0.005706     -0.001418      0.005460
      2.13301      2.90131      2.91730        -0.004742     -0.002375      0.002232
      2.18648      2.93661      8.07708        -0.004742     -0.002375      0.002232
      3.88299      7.25795      5.06624        -0.004742     -0.002375      0.002232
      3.93646      7.29325     10.22602        -0.004742     -0.002375      0.002232
      6.81323      2.56467      5.06543        -0.004742     -0.002375      0.002232
      6.86670      2.59997     10.22521        -0.004742     -0.002375      0.002232
      8.56321      6.92132      7.21437        -0.004742     -0.002375      0.002232
      8.61668      6.95661     12.37415        -0.004742     -0.002375      0.002232
      3.10988     -0.22141      1.43086         0.000128      0.000525     -0.001452
      3.16335     -0.18611      6.59064         0.000128      0.000525     -0.001452
      4.85986      4.13523      3.57980         0.000128      0.000525     -0.001452
      4.91333      4.17053      8.73958         0.000128      0.000525     -0.001452
      7.79010     -0.55805      3.57899         0.000128      0.000525     -0.001452
      7.84357     -0.52275      8.73877         0.000128      0.000525     -0.001452
      9.54008      3.79860      5.72793         0.000128      0.000525     -0.001452
      9.59355      3.83390     10.88771         0.000128      0.000525     -0.001452
      0.03840      0.02531      3.42997         0.000119     -0.000025      0.000277
      0.09186      0.06061      8.58975         0.000119     -0.000025      0.000277
      1.78838      4.38195      5.57891         0.000119     -0.000025      0.000277
      1.84185      4.41725     10.73869         0.000119     -0.000025      0.000277
      4.71862     -0.31133      5.57810         0.000119     -0.000025      0.000277
      4.77208     -0.27603     10.73788         0.000119     -0.000025      0.000277
      6.46860      4.04532      7.72704         0.000119     -0.000025      0.000277
      6.52206      4.08062     12.88682         0.000119     -0.000025      0.000277
      1.16489      2.89289      1.43178         0.001493      0.000546     -0.002144
      1.21835      2.92818      6.59156         0.001493      0.000546     -0.002144
      2.91487      7.24953      3.58072         0.001493      0.000546     -0.002144
      2.96833      7.28483      8.74050         0.001493      0.000546     -0.002144
      5.84510      2.55625      3.57990         0.001493      0.000546     -0.002144
      5.89857      2.59155      8.73968         0.001493      0.000546     -0.002144
      7.59509      6.91290      5.72884         0.001493      0.000546     -0.002144
      7.64855      6.94819     10.88862         0.001493      0.000546     -0.002144
      5.07029      8.59807      5.01514        -0.000128     -0.000525      0.001452
      5.12376      8.63336     10.17492        -0.000128     -0.000525      0.001452
      3.32031      4.24142      2.86620        -0.000128     -0.000525      0.001452
      3.37378      4.27672      8.02598        -0.000128     -0.000525      0.001452
      9.75051      8.26143      7.16327        -0.000128     -0.000525      0.001452
      9.80398      8.29673     12.32305        -0.000128     -0.000525      0.001452
      8.00053      3.90479      5.01433        -0.000128     -0.000525      0.001452
      8.05400      3.94008     10.17411        -0.000128     -0.000525      0.001452
      0.01507      0.00999      1.72981        -0.000119      0.000025     -0.000277
      0.06853      0.04528      6.88959        -0.000119      0.000025     -0.000277
      1.76505      4.36663      3.87875        -0.000119      0.000025     -0.000277
      1.81851      4.40193      9.03853        -0.000119      0.000025     -0.000277
      4.69528     -0.32665      3.87793        -0.000119      0.000025     -0.000277
      4.74875     -0.29135      9.03771        -0.000119      0.000025     -0.000277
      6.44526      4.03000      6.02687        -0.000119      0.000025     -0.000277
      6.49873      4.06529     11.18665        -0.000119      0.000025     -0.000277
      9.94553      0.79049      5.01342        -0.001493     -0.000546      0.002144
      9.99899      0.82578     10.17319        -0.001493     -0.000546      0.002144
     11.69551      5.14713      7.16236        -0.001493     -0.000546      0.002144
     11.74897      5.18243     12.32213        -0.001493     -0.000546      0.002144
      5.26531      1.12712      2.86529        -0.001493     -0.000546      0.002144
      5.31877      1.16242      8.02507        -0.001493     -0.000546      0.002144
      7.01529      5.48377      5.01423        -0.001493     -0.000546      0.002144
      7.06876      5.51906     10.17401        -0.001493     -0.000546      0.002144
      4.08671      2.55603      5.96081        -0.006594      0.000060      0.003188
      4.14017      2.59133     11.12059        -0.006594      0.000060      0.003188
      5.83669      6.91268      8.10975        -0.006594      0.000060      0.003188
      5.89015      6.94797     13.26953        -0.006594      0.000060      0.003188
      8.76692      2.21940      8.10894        -0.006594      0.000060      0.003188
      8.82039      2.25469     13.26871        -0.006594      0.000060      0.003188
     10.51690      6.57604     10.25788        -0.006594      0.000060      0.003188
     10.57037      6.61134     15.41765        -0.006594      0.000060      0.003188
      2.39696      1.49927      3.49604         0.006594     -0.000060     -0.003188
      2.45042      1.53457      8.65582         0.006594     -0.000060     -0.003188
      4.14694      5.85592      5.64498         0.006594     -0.000060     -0.003188
      4.20040      5.89122     10.80476         0.006594     -0.000060     -0.003188
      7.07717      1.16264      5.64416         0.006594     -0.000060     -0.003188
      7.13064      1.19794     10.80394         0.006594     -0.000060     -0.003188
      8.82715      5.51928      7.79310         0.006594     -0.000060     -0.003188
      8.88062      5.55458     12.95288         0.006594     -0.000060     -0.003188
 -----------------------------------------------------------------------------------
    total drift:                               -0.000000     -0.000000     -0.000000


--------------------------------------------------------------------------------------------------------



  FREE ENERGIE OF THE ION-ELECTRON SYSTEM (eV)
  ---------------------------------------------------
  free  energy   TOTEN  =      -793.89012539 eV

  energy  without entropy=     -793.89012539  energy(sigma->0) =     -793.89012539
 
 d Force = 0.3591391E-07[ 0.350E-07, 0.368E-07]  d Energy =-0.1196403E-05 0.123E-05
 d Force =-0.1221509E-03[-0.122E-03,-0.122E-03]  d Ewald  =-0.2394086E-03 0.117E-03


--------------------------------------------------------------------------------------------------------


    POTLOK:  cpu time    0.2704: real time    0.2706


--------------------------------------------------------------------------------------------------------




--------------------------------------------------------------------------------------------------------


  
 reached required accuracy - stopping structural energy minimisation
     LOOP+:  cpu time   28.8321: real time   28.8941
 -----------------------------------------------------------------------------
|                                                                             |
|           W    W    AA    RRRRR   N    N  II  N    N   GGGG   !!!           |
|           W    W   A  A   R    R  NN   N  II  NN   N  G    G  !!!           |
|           W    W  A    A  R    R  N N  N  II  N N  N  G       !!!           |
|           W WW W  AAAAAA  RRRRR   N  N N  II  N  N N  G  GGG   !            |
|           WW  WW  A    A  R   R   N   NN  II  N   NN  G    G                |
|           W    W  A    A  R    R  N    N  II  N    N   GGGG   !!!           |
|                                                                             |
|     Tetrahedron method does not include variations of the Fermi             |
|     occupations, so forces and stress will be inaccurate. We suggest        |
|     using a different smearing scheme ISMEAR = 1 or 2 for metals in         |
|     relaxations.                                                            |
|                                                                             |
 -----------------------------------------------------------------------------

    4ORBIT:  cpu time    0.0000: real time    0.0000
 BZINTS: Fermi energy:    4.162379;  352.000000 electrons
         Band energy:-0.494017E+03;  BLOECHL correction:   -0.129693

 total amount of memory used by VASP MPI-rank0  1786243. kBytes
=======================================================================

   base      :      30000. kBytes
   nonlr-proj:      52712. kBytes
   fftplans  :     213988. kBytes
   grid      :     382371. kBytes
   one-center:        344. kBytes
   wavefun   :    1106828. kBytes
 
  
  
 General timing and accounting informations for this job:
 ========================================================
  
                  Total CPU time used (sec):     2979.842
                            User time (sec):     2422.122
                          System time (sec):      557.720
                         Elapsed time (sec):     2972.696
  
                   Maximum memory used (kb):     3889464.
                   Average memory used (kb):          N/A
  
                          Minor page faults:     39703097
                          Major page faults:            0
                 Voluntary context switches:       599270
