<?xml version="1.0" encoding="ISO-8859-1"?>
<modeling>
 <generator>
  <i name="program" type="string">vasp </i>
  <i name="version" type="string">6.2.0  </i>
  <i name="subversion" type="string">18Jan21 (build Feb 25 2021 07:51:20) complex                          parallel </i>
  <i name="platform" type="string">LinuxPGI </i>
  <i name="date" type="string">2022 05 18 </i>
  <i name="time" type="string">08:00:07 </i>
 </generator>
 <incar>
  <i type="string" name="PREC">Accurate</i>
  <i type="string" name="ALGO">Fast</i>
  <i type="int" name="IBRION">     2</i>
  <i name="EDIFF">      0.00000100</i>
  <i type="int" name="NSW">   300</i>
  <i type="int" name="ISIF">     4</i>
  <i name="ENCUT">    700.00000000</i>
  <i type="string" name="LREAL">Auto</i>
  <i type="int" name="ISMEAR">    -5</i>
  <i name="SIGMA">      0.05000000</i>
  <i type="logical" name="LWAVE"> F  </i>
 </incar>
 <primitive_cell>
  <structure name="primitive_cell" >
   <crystal>
    <varray name="basis" >
     <v>       7.26383000      -4.40669500      -3.02749800 </v>
     <v>       2.60021950      -4.40669500      -0.00000050 </v>
     <v>      -0.05467750      -0.03581800      -5.18098550 </v>
    </varray>
    <i name="volume">    107.48642963 </i>
    <varray name="rec_basis" >
     <v>       0.21240842       0.12533396      -0.00310813 </v>
     <v>      -0.21139956      -0.35166610       0.00466220 </v>
     <v>      -0.12412039      -0.07323860      -0.19119724 </v>
    </varray>
   </crystal>
   <varray name="positions" >
    <v>       0.12182000       0.07715000       0.07715000 </v>
    <v>       0.60206000       0.59691000       0.07715000 </v>
    <v>       0.12182000       0.55739000       0.07715000 </v>
    <v>       0.87818000       0.92285000       0.92285000 </v>
    <v>       0.39794000       0.40309000       0.92285000 </v>
    <v>       0.87818000       0.44261000       0.92285000 </v>
    <v>       0.66481600       0.33495400       0.33495400 </v>
    <v>       0.00046000       0.99931000       0.33495400 </v>
    <v>       0.66481600       0.67059800       0.33495400 </v>
    <v>       0.33518400       0.66504600       0.66504600 </v>
    <v>       0.99954000       0.00069000       0.66504600 </v>
    <v>       0.33518400       0.32940200       0.66504600 </v>
    <v>       0.26158800       0.10761800       0.10761800 </v>
    <v>       0.73841200       0.89238200       0.89238200 </v>
   </varray>
  </structure>
  <varray name="primitive_index" >
   <v type="int" >        1 </v>
   <v type="int" >        9 </v>
   <v type="int" >       17 </v>
   <v type="int" >       28 </v>
   <v type="int" >       35 </v>
   <v type="int" >       42 </v>
   <v type="int" >       52 </v>
   <v type="int" >       59 </v>
   <v type="int" >       66 </v>
   <v type="int" >       76 </v>
   <v type="int" >       83 </v>
   <v type="int" >       90 </v>
   <v type="int" >       97 </v>
   <v type="int" >      105 </v>
  </varray>
 </primitive_cell>
 <kpoints>
  <generation param="Gamma">
   <v type="int" name="divisions">       2        2        2 </v>
   <v name="usershift">      0.00000000       0.00000000       0.00000000 </v>
   <v name="genvec1">      0.50000000      -0.00000000       0.00000000 </v>
   <v name="genvec2">     -0.00000000       0.50000000      -0.00000000 </v>
   <v name="genvec3">     -0.00000000      -0.00000000       0.50000000 </v>
   <v name="shift">      0.00000000       0.00000000       0.00000000 </v>
  </generation>
  <varray name="kpointlist" >
   <v>       0.00000000       0.00000000       0.00000000 </v>
   <v>       0.50000000       0.00000000       0.00000000 </v>
   <v>       0.00000000       0.50000000       0.00000000 </v>
   <v>       0.50000000       0.50000000       0.00000000 </v>
   <v>       0.00000000       0.00000000       0.50000000 </v>
   <v>       0.50000000       0.00000000       0.50000000 </v>
   <v>       0.00000000       0.50000000       0.50000000 </v>
   <v>       0.50000000       0.50000000       0.50000000 </v>
  </varray>
  <varray name="weights" >
   <v>       0.12500000 </v>
   <v>       0.12500000 </v>
   <v>       0.12500000 </v>
   <v>       0.12500000 </v>
   <v>       0.12500000 </v>
   <v>       0.12500000 </v>
   <v>       0.12500000 </v>
   <v>       0.12500000 </v>
  </varray>
  <varray name="tetrahedronlist"  type="int" >
   <v type="int" >        2        1        3        4        8 </v>
   <v type="int" >        2        1        2        4        8 </v>
   <v type="int" >        2        1        2        6        8 </v>
   <v type="int" >        2        1        3        7        8 </v>
   <v type="int" >        2        1        5        7        8 </v>
   <v type="int" >        2        1        5        6        8 </v>
   <v type="int" >        2        2        3        4        7 </v>
   <v type="int" >        2        1        2        3        7 </v>
   <v type="int" >        2        1        2        5        7 </v>
   <v type="int" >        2        2        4        7        8 </v>
   <v type="int" >        2        2        6        7        8 </v>
   <v type="int" >        2        2        5        6        7 </v>
   <v type="int" >        2        1        2        3        6 </v>
   <v type="int" >        2        2        3        4        6 </v>
   <v type="int" >        2        3        4        6        8 </v>
   <v type="int" >        2        1        3        5        6 </v>
   <v type="int" >        2        3        5        6        7 </v>
   <v type="int" >        2        3        6        7        8 </v>
   <v type="int" >        2        1        2        4        5 </v>
   <v type="int" >        2        1        3        4        5 </v>
   <v type="int" >        2        3        4        5        7 </v>
   <v type="int" >        2        2        4        5        6 </v>
   <v type="int" >        2        4        5        6        8 </v>
   <v type="int" >        2        4        5        7        8 </v>
  </varray>
  <i name="volumeweight">      0.02083333 </i>
 </kpoints>
 <parameters>
  <separator name="general" >
   <i type="string" name="SYSTEM">unknown system</i>
   <i type="logical" name="LCOMPAT"> F  </i>
  </separator>
  <separator name="electronic" >
   <i type="string" name="PREC">accura</i>
   <i name="ENMAX">    700.00000000</i>
   <i name="ENAUG">    644.87300000</i>
   <i name="EDIFF">      0.00000100</i>
   <i type="int" name="IALGO">    68</i>
   <i type="int" name="IWAVPR">    11</i>
   <i type="int" name="NBANDS">   233</i>
   <i type="int" name="NBANDSLOW">    -1</i>
   <i type="int" name="NBANDSHIGH">    -1</i>
   <i name="NELECT">    352.00000000</i>
   <i type="int" name="TURBO">     0</i>
   <i type="int" name="IRESTART">     0</i>
   <i type="int" name="NREBOOT">     0</i>
   <i type="int" name="NMIN">     0</i>
   <i name="EREF">      0.00000000</i>
   <separator name="electronic smearing" >
    <i type="int" name="ISMEAR">    -5</i>
    <i name="SIGMA">      0.05000000</i>
    <i name="KSPACING">      0.50000000</i>
    <i type="logical" name="KGAMMA"> T  </i>
    <i type="logical" name="KBLOWUP"> T  </i>
   </separator>
   <separator name="electronic projectors" >
    <i type="logical" name="LREAL"> T  </i>
    <v name="ROPT">     -0.00025000     -0.00025000</v>
    <i type="int" name="LMAXPAW">  -100</i>
    <i type="int" name="LMAXMIX">     2</i>
    <i type="logical" name="NLSPLINE"> F  </i>
   </separator>
   <separator name="electronic startup" >
    <i type="int" name="ISTART">     0</i>
    <i type="int" name="ICHARG">     2</i>
    <i type="int" name="INIWAV">     1</i>
   </separator>
   <separator name="electronic spin" >
    <i type="int" name="ISPIN">     1</i>
    <i type="logical" name="LNONCOLLINEAR"> F  </i>
    <v name="MAGMOM">      1.00000000      1.00000000      1.00000000      1.00000000      1.00000000      1.00000000      1.00000000      1.00000000      1.00000000      1.00000000      1.00000000      1.00000000      1.00000000      1.00000000      1.00000000      1.00000000      1.00000000      1.00000000      1.00000000      1.00000000
      1.00000000      1.00000000      1.00000000      1.00000000      1.00000000      1.00000000      1.00000000      1.00000000      1.00000000      1.00000000      1.00000000      1.00000000      1.00000000      1.00000000      1.00000000      1.00000000      1.00000000      1.00000000      1.00000000      1.00000000
      1.00000000      1.00000000      1.00000000      1.00000000      1.00000000      1.00000000      1.00000000      1.00000000      1.00000000      1.00000000      1.00000000      1.00000000      1.00000000      1.00000000      1.00000000      1.00000000      1.00000000      1.00000000      1.00000000      1.00000000
      1.00000000      1.00000000      1.00000000      1.00000000      1.00000000      1.00000000      1.00000000      1.00000000      1.00000000      1.00000000      1.00000000      1.00000000      1.00000000      1.00000000      1.00000000      1.00000000      1.00000000      1.00000000      1.00000000      1.00000000
      1.00000000      1.00000000      1.00000000      1.00000000      1.00000000      1.00000000      1.00000000      1.00000000      1.00000000      1.00000000      1.00000000      1.00000000      1.00000000      1.00000000      1.00000000      1.00000000      1.00000000      1.00000000      1.00000000      1.00000000
      1.00000000      1.00000000      1.00000000      1.00000000      1.00000000      1.00000000      1.00000000      1.00000000      1.00000000      1.00000000      1.00000000      1.00000000</v>
    <i name="NUPDOWN">     -1.00000000</i>
    <i type="logical" name="LSORBIT"> F  </i>
    <v name="SAXIS">      0.00000000      0.00000000      1.00000000</v>
    <i type="logical" name="LSPIRAL"> F  </i>
    <v name="QSPIRAL">      0.00000000      0.00000000      0.00000000</v>
    <i type="logical" name="LZEROZ"> F  </i>
   </separator>
   <separator name="electronic exchange-correlation" >
    <i type="logical" name="LASPH"> F  </i>
    <i type="logical" name="LMETAGGA"> F  </i>
   </separator>
   <separator name="electronic convergence" >
    <i type="int" name="NELM">    60</i>
    <i type="int" name="NELMDL">    -5</i>
    <i type="int" name="NELMIN">     2</i>
    <i name="ENINI">    700.00000000</i>
    <separator name="electronic convergence detail" >
     <i type="logical" name="LDIAG"> T  </i>
     <i type="logical" name="LSUBROT"> F  </i>
     <i name="WEIMIN">      0.00100000</i>
     <i name="EBREAK">      0.00000000</i>
     <i name="DEPER">      0.30000000</i>
     <i type="int" name="NRMM">     4</i>
     <i name="TIME">      0.40000000</i>
    </separator>
   </separator>
   <separator name="electronic mixer" >
    <i name="AMIX">      0.40000000</i>
    <i name="BMIX">      1.00000000</i>
    <i name="AMIN">      0.10000000</i>
    <i name="AMIX_MAG">      1.60000000</i>
    <i name="BMIX_MAG">      1.00000000</i>
    <separator name="electronic mixer details" >
     <i type="int" name="IMIX">     4</i>
     <i type="logical" name="MIXFIRST"> F  </i>
     <i type="int" name="MAXMIX">   -45</i>
     <i name="WC">    100.00000000</i>
     <i type="int" name="INIMIX">     1</i>
     <i type="int" name="MIXPRE">     1</i>
     <i type="int" name="MREMOVE">     5</i>
    </separator>
   </separator>
   <separator name="electronic dipolcorrection" >
    <i type="logical" name="LDIPOL"> F  </i>
    <i type="logical" name="LMONO"> F  </i>
    <i type="int" name="IDIPOL">     0</i>
    <i name="EPSILON">      1.00000000</i>
    <v name="DIPOL">   -100.00000000   -100.00000000   -100.00000000</v>
    <i name="EFIELD">      0.00000000</i>
   </separator>
  </separator>
  <separator name="grids" >
   <i type="int" name="NGX">    90</i>
   <i type="int" name="NGY">    96</i>
   <i type="int" name="NGZ">    90</i>
   <i type="int" name="NGXF">   180</i>
   <i type="int" name="NGYF">   192</i>
   <i type="int" name="NGZF">   180</i>
   <i type="logical" name="ADDGRID"> F  </i>
  </separator>
  <separator name="ionic" >
   <i type="int" name="NSW">   300</i>
   <i type="int" name="IBRION">     2</i>
   <i type="int" name="MDALGO">     0</i>
   <i type="int" name="ISIF">     4</i>
   <i name="PSTRESS">      0.00000000</i>
   <i name="EDIFFG">      0.00001000</i>
   <i type="int" name="NFREE">     1</i>
   <i name="POTIM">      0.50000000</i>
   <i name="SMASS">     -3.00000000</i>
   <i name="SCALEE">      1.00000000</i>
  </separator>
  <separator name="ionic md" >
   <i name="TEBEG">      0.00010000</i>
   <i name="TEEND">      0.00010000</i>
   <i type="int" name="NBLOCK">     1</i>
   <i type="int" name="KBLOCK">   300</i>
   <i type="int" name="NPACO">   256</i>
   <i name="APACO">     16.00000000</i>
  </separator>
  <separator name="symmetry" >
   <i type="int" name="ISYM">     2</i>
   <i name="SYMPREC">      0.00001000</i>
  </separator>
  <separator name="dos" >
   <i type="int" name="LORBIT">     0</i>
   <v name="RWIGS">     -1.00000000     -1.00000000</v>
   <i type="int" name="NEDOS">   301</i>
   <i name="EMIN">     10.00000000</i>
   <i name="EMAX">    -10.00000000</i>
   <i name="EFERMI">      0.00000000</i>
  </separator>
  <separator name="writing" >
   <i type="int" name="NWRITE">     2</i>
   <i type="logical" name="LWAVE"> F  </i>
   <i type="logical" name="LDOWNSAMPLE"> F  </i>
   <i type="logical" name="LCHARG"> T  </i>
   <i type="logical" name="LPARD"> F  </i>
   <i type="logical" name="LVTOT"> F  </i>
   <i type="logical" name="LVHAR"> F  </i>
   <i type="logical" name="LELF"> F  </i>
   <i type="logical" name="LOPTICS"> F  </i>
   <v name="STM">      0.00000000      0.00000000      0.00000000      0.00000000      0.00000000      0.00000000      0.00000000</v>
  </separator>
  <separator name="performance" >
   <i type="int" name="NPAR">     1</i>
   <i type="int" name="NSIM">     4</i>
   <i type="int" name="NBLK">    -1</i>
   <i type="logical" name="LPLANE"> T  </i>
   <i type="logical" name="LSCALAPACK"> T  </i>
   <i type="logical" name="LSCAAWARE"> F  </i>
   <i type="logical" name="LSCALU"> F  </i>
   <i type="logical" name="LASYNC"> F  </i>
   <i type="logical" name="LORBITALREAL"> F  </i>
  </separator>
  <separator name="miscellaneous" >
   <i type="int" name="IDIOT">     3</i>
   <i type="int" name="PHON_NSTRUCT">    -1</i>
   <i type="logical" name="LMUSIC"> F  </i>
   <v name="POMASS">     10.81100000     12.01100000</v>
   <v name="DARWINR">      0.00000000      0.00000000</v>
   <v name="DARWINV">      1.00000000      1.00000000</v>
   <i type="logical" name="LCORR"> T  </i>
  </separator>
  <i type="logical" name="GGA_COMPAT"> T  </i>
  <i type="logical" name="LBERRY"> F  </i>
  <i type="int" name="ICORELEVEL">     0</i>
  <i type="logical" name="LDAU"> F  </i>
  <i type="int" name="I_CONSTRAINED_M">     0</i>
  <separator name="electronic exchange-correlation" >
   <i type="string" name="GGA">--</i>
   <i type="int" name="VOSKOWN">     0</i>
   <i type="logical" name="LHFCALC"> F  </i>
   <i type="string" name="PRECFOCK"></i>
   <i type="logical" name="LSYMGRAD"> F  </i>
   <i type="logical" name="LHFONE"> F  </i>
   <i type="logical" name="LRHFCALC"> F  </i>
   <i type="logical" name="LTHOMAS"> F  </i>
   <i type="logical" name="LMODELHF"> F  </i>
   <i type="logical" name="LFOCKACE"> F  </i>
   <i name="ENCUT4O">     -1.00000000</i>
   <i type="int" name="EXXOEP">     0</i>
   <i type="int" name="FOURORBIT">     0</i>
   <i name="AEXX">      0.00000000</i>
   <i name="HFALPHA">      0.00000000</i>
   <i name="MCALPHA">      0.00000000</i>
   <i name="ALDAX">      1.00000000</i>
   <i name="AGGAX">      1.00000000</i>
   <i name="ALDAC">      1.00000000</i>
   <i name="AGGAC">      1.00000000</i>
   <i type="int" name="NKREDX">     1</i>
   <i type="int" name="NKREDY">     1</i>
   <i type="int" name="NKREDZ">     1</i>
   <i type="logical" name="SHIFTRED"> F  </i>
   <i type="logical" name="ODDONLY"> F  </i>
   <i type="logical" name="EVENONLY"> F  </i>
   <i type="int" name="LMAXFOCK">     0</i>
   <i type="int" name="NMAXFOCKAE">     0</i>
   <i type="logical" name="LFOCKAEDFT"> F  </i>
   <i name="HFSCREEN">      0.00000000</i>
   <i name="HFSCREENC">      0.00000000</i>
   <i type="int" name="NBANDSGWLOW">     0</i>
  </separator>
  <separator name="vdW DFT" >
   <i type="logical" name="LUSE_VDW"> F  </i>
   <i name="Zab_VDW">     -0.84910000</i>
   <i name="PARAM1">      0.12340000</i>
   <i name="PARAM2">      1.00000000</i>
   <i name="PARAM3">      0.00000000</i>
  </separator>
  <separator name="model GW" >
   <i type="int" name="MODEL_GW">     0</i>
   <i name="MODEL_EPS0">      4.60656127</i>
   <i name="MODEL_ALPHA">      1.00000000</i>
  </separator>
  <separator name="linear response parameters" >
   <i type="logical" name="LEPSILON"> F  </i>
   <i type="logical" name="LRPA"> F  </i>
   <i type="logical" name="LNABLA"> F  </i>
   <i type="logical" name="LVEL"> F  </i>
   <i type="int" name="KINTER">     0</i>
   <i name="CSHIFT">      0.10000000</i>
   <i name="OMEGAMAX">     -1.00000000</i>
   <i name="DEG_THRESHOLD">      0.00200000</i>
   <i name="RTIME">     -0.10000000</i>
   <i name="WPLASMAI">      0.00000000</i>
   <v name="DFIELD">      0.00000000      0.00000000      0.00000000</v>
   <v name="WPLASMA">      0.00000000      0.00000000      0.00000000      0.00000000      0.00000000      0.00000000      0.00000000      0.00000000      0.00000000</v>
  </separator>
  <separator name="orbital magnetization" >
   <i type="logical" name="NUCIND"> F  </i>
   <v name="MAGPOS">      0.00000000      0.00000000      0.00000000</v>
   <i type="logical" name="LNICSALL"> T  </i>
   <i type="logical" name="ORBITALMAG"> F  </i>
   <i type="logical" name="LMAGBLOCH"> F  </i>
   <i type="logical" name="LCHIMAG"> F  </i>
   <i type="logical" name="LGAUGE"> T  </i>
   <i type="int" name="MAGATOM">     0</i>
   <v name="MAGDIPOL">      0.00000000      0.00000000      0.00000000</v>
   <v name="AVECCONST">      0.00000000      0.00000000      0.00000000</v>
  </separator>
  <separator name="response functions" >
   <i type="logical" name="LFINITE_TEMPERATURE"> F  </i>
   <i type="logical" name="LADDER"> F  </i>
   <i type="logical" name="LRPAFORCE"> F  </i>
   <i type="logical" name="LFXC"> F  </i>
   <i type="logical" name="LHARTREE"> T  </i>
   <i type="int" name="IBSE">     0</i>
   <v type="int" name="KPOINT">    -1     0     0     0</v>
   <i type="logical" name="LTCTC"> F  </i>
   <i type="logical" name="LTCTE"> F  </i>
   <i type="logical" name="LTETE"> F  </i>
   <i type="logical" name="LTRIPLET"> F  </i>
   <i type="logical" name="LFXCEPS"> F  </i>
   <i type="logical" name="LFXHEG"> F  </i>
   <i type="int" name="NATURALO">     2</i>
   <i type="logical" name="LHOLEGF"> F  </i>
   <i type="logical" name="L2ORDER"> F  </i>
   <i type="logical" name="LDMP1"> F  </i>
   <i type="logical" name="LMP2LT"> F  </i>
   <i type="logical" name="LSMP2LT"> F  </i>
   <i type="logical" name="LGWLF"> F  </i>
   <i name="ENCUTGW">     -2.00000000</i>
   <i name="ENCUTGWSOFT">     -2.00000000</i>
   <i name="ENCUTLF">     -1.00000000</i>
   <i type="logical" name="LESF_SPLINES"> F  </i>
   <i type="int" name="LMAXMP2">    -1</i>
   <i name="SCISSOR">      0.00000000</i>
   <i type="int" name="NOMEGA">     0</i>
   <i type="int" name="NOMEGAR">     0</i>
   <i type="int" name="NBANDSGW">    -1</i>
   <i type="int" name="NBANDSO">    -1</i>
   <i type="int" name="NBANDSV">    -1</i>
   <i type="int" name="NELM">     1</i>
   <i type="int" name="NELMHF">     1</i>
   <i type="int" name="DIM">     3</i>
   <i type="int" name="IESPILON">     4</i>
   <i type="int" name="ANTIRES">     0</i>
   <i name="OMEGAMAX">    -30.00000000</i>
   <i name="OMEGAMIN">    -30.00000000</i>
   <i name="OMEGATL">   -200.00000000</i>
   <i type="int" name="OMEGAGRID">     0</i>
   <i name="CSHIFT">     -0.10000000</i>
   <i type="logical" name="LSELFENERGY"> F  </i>
   <i type="logical" name="LSPECTRAL"> F  </i>
   <i type="logical" name="LSPECTRALGW"> F  </i>
   <i type="logical" name="LSINGLES"> F  </i>
   <i type="logical" name="LFERMIGW"> F  </i>
   <i type="logical" name="ODDONLYGW"> F  </i>
   <i type="logical" name="EVENONLYGW"> F  </i>
   <i type="int" name="NKREDLFX">     1</i>
   <i type="int" name="NKREDLFY">     1</i>
   <i type="int" name="NKREDLFZ">     1</i>
   <i type="int" name="MAXMEM">  2800</i>
   <i type="int" name="TELESCOPE">     0</i>
   <i type="int" name="NTAUPAR">    -1</i>
   <i type="int" name="NOMEGAPAR">    -1</i>
   <i name="DAMP_NEWTON">      0.80000001</i>
   <i name="LAMBDA">      1.00000000</i>
  </separator>
  <separator name="External order field" >
   <i name="OFIELD_KAPPA">      0.00000000</i>
   <v name="OFIELD_K">      0.00000000      0.00000000      0.00000000</v>
   <i name="OFIELD_Q6_NEAR">      0.00000000</i>
   <i name="OFIELD_Q6_FAR">      0.00000000</i>
   <i name="OFIELD_A">      0.00000000</i>
  </separator>
 </parameters>
 <atominfo>
  <atoms>     112 </atoms>
  <types>       2 </types>
  <array name="atoms" >
   <dimension dim="1">ion</dimension>
   <field type="string">element</field>
   <field type="int">atomtype</field>
   <set>
    <rc><c>B </c><c>   1</c></rc>
    <rc><c>B </c><c>   1</c></rc>
    <rc><c>B </c><c>   1</c></rc>
    <rc><c>B </c><c>   1</c></rc>
    <rc><c>B </c><c>   1</c></rc>
    <rc><c>B </c><c>   1</c></rc>
    <rc><c>B </c><c>   1</c></rc>
    <rc><c>B </c><c>   1</c></rc>
    <rc><c>B </c><c>   1</c></rc>
    <rc><c>B </c><c>   1</c></rc>
    <rc><c>B </c><c>   1</c></rc>
    <rc><c>B </c><c>   1</c></rc>
    <rc><c>B </c><c>   1</c></rc>
    <rc><c>B </c><c>   1</c></rc>
    <rc><c>B </c><c>   1</c></rc>
    <rc><c>B </c><c>   1</c></rc>
    <rc><c>B </c><c>   1</c></rc>
    <rc><c>B </c><c>   1</c></rc>
    <rc><c>B </c><c>   1</c></rc>
    <rc><c>B </c><c>   1</c></rc>
    <rc><c>B </c><c>   1</c></rc>
    <rc><c>B </c><c>   1</c></rc>
    <rc><c>B </c><c>   1</c></rc>
    <rc><c>B </c><c>   1</c></rc>
    <rc><c>B </c><c>   1</c></rc>
    <rc><c>B </c><c>   1</c></rc>
    <rc><c>B </c><c>   1</c></rc>
    <rc><c>B </c><c>   1</c></rc>
    <rc><c>B </c><c>   1</c></rc>
    <rc><c>B </c><c>   1</c></rc>
    <rc><c>B </c><c>   1</c></rc>
    <rc><c>B </c><c>   1</c></rc>
    <rc><c>B </c><c>   1</c></rc>
    <rc><c>B </c><c>   1</c></rc>
    <rc><c>B </c><c>   1</c></rc>
    <rc><c>B </c><c>   1</c></rc>
    <rc><c>B </c><c>   1</c></rc>
    <rc><c>B </c><c>   1</c></rc>
    <rc><c>B </c><c>   1</c></rc>
    <rc><c>B </c><c>   1</c></rc>
    <rc><c>B </c><c>   1</c></rc>
    <rc><c>B </c><c>   1</c></rc>
    <rc><c>B </c><c>   1</c></rc>
    <rc><c>B </c><c>   1</c></rc>
    <rc><c>B </c><c>   1</c></rc>
    <rc><c>B </c><c>   1</c></rc>
    <rc><c>B </c><c>   1</c></rc>
    <rc><c>B </c><c>   1</c></rc>
    <rc><c>B </c><c>   1</c></rc>
    <rc><c>B </c><c>   1</c></rc>
    <rc><c>B </c><c>   1</c></rc>
    <rc><c>B </c><c>   1</c></rc>
    <rc><c>B </c><c>   1</c></rc>
    <rc><c>B </c><c>   1</c></rc>
    <rc><c>B </c><c>   1</c></rc>
    <rc><c>B </c><c>   1</c></rc>
    <rc><c>B </c><c>   1</c></rc>
    <rc><c>B </c><c>   1</c></rc>
    <rc><c>B </c><c>   1</c></rc>
    <rc><c>B </c><c>   1</c></rc>
    <rc><c>B </c><c>   1</c></rc>
    <rc><c>B </c><c>   1</c></rc>
    <rc><c>B </c><c>   1</c></rc>
    <rc><c>B </c><c>   1</c></rc>
    <rc><c>B </c><c>   1</c></rc>
    <rc><c>B </c><c>   1</c></rc>
    <rc><c>B </c><c>   1</c></rc>
    <rc><c>B </c><c>   1</c></rc>
    <rc><c>B </c><c>   1</c></rc>
    <rc><c>B </c><c>   1</c></rc>
    <rc><c>B </c><c>   1</c></rc>
    <rc><c>B </c><c>   1</c></rc>
    <rc><c>B </c><c>   1</c></rc>
    <rc><c>B </c><c>   1</c></rc>
    <rc><c>B </c><c>   1</c></rc>
    <rc><c>B </c><c>   1</c></rc>
    <rc><c>B </c><c>   1</c></rc>
    <rc><c>B </c><c>   1</c></rc>
    <rc><c>B </c><c>   1</c></rc>
    <rc><c>B </c><c>   1</c></rc>
    <rc><c>B </c><c>   1</c></rc>
    <rc><c>B </c><c>   1</c></rc>
    <rc><c>B </c><c>   1</c></rc>
    <rc><c>B </c><c>   1</c></rc>
    <rc><c>B </c><c>   1</c></rc>
    <rc><c>B </c><c>   1</c></rc>
    <rc><c>B </c><c>   1</c></rc>
    <rc><c>B </c><c>   1</c></rc>
    <rc><c>B </c><c>   1</c></rc>
    <rc><c>B </c><c>   1</c></rc>
    <rc><c>B </c><c>   1</c></rc>
    <rc><c>B </c><c>   1</c></rc>
    <rc><c>B </c><c>   1</c></rc>
    <rc><c>B </c><c>   1</c></rc>
    <rc><c>B </c><c>   1</c></rc>
    <rc><c>B </c><c>   1</c></rc>
    <rc><c>C </c><c>   2</c></rc>
    <rc><c>C </c><c>   2</c></rc>
    <rc><c>C </c><c>   2</c></rc>
    <rc><c>C </c><c>   2</c></rc>
    <rc><c>C </c><c>   2</c></rc>
    <rc><c>C </c><c>   2</c></rc>
    <rc><c>C </c><c>   2</c></rc>
    <rc><c>C </c><c>   2</c></rc>
    <rc><c>C </c><c>   2</c></rc>
    <rc><c>C </c><c>   2</c></rc>
    <rc><c>C </c><c>   2</c></rc>
    <rc><c>C </c><c>   2</c></rc>
    <rc><c>C </c><c>   2</c></rc>
    <rc><c>C </c><c>   2</c></rc>
    <rc><c>C </c><c>   2</c></rc>
    <rc><c>C </c><c>   2</c></rc>
   </set>
  </array>
  <array name="atomtypes" >
   <dimension dim="1">type</dimension>
   <field type="int">atomspertype</field>
   <field type="string">element</field>
   <field>mass</field>
   <field>valence</field>
   <field type="string">pseudopotential</field>
   <set>
    <rc><c>  96</c><c>B </c><c>     10.81100000</c><c>      3.00000000</c><c>  PAW_PBE B 06Sep2000                   </c></rc>
    <rc><c>  16</c><c>C </c><c>     12.01100000</c><c>      4.00000000</c><c>  PAW_PBE C 08Apr2002                   </c></rc>
   </set>
  </array>
 </atominfo>
 <structure name="initialpos" >
  <crystal>
   <varray name="basis" >
    <v>       9.43657600       0.07163600       4.30697600 </v>
    <v>       4.23613700       8.88502600       4.30697700 </v>
    <v>       0.10935500       0.07163600      10.36197100 </v>
   </varray>
   <i name="volume">    859.89143700 </i>
   <varray name="rec_basis" >
    <v>       0.10670864      -0.05049909      -0.00077703 </v>
    <v>      -0.00050443       0.11316607      -0.00077703 </v>
    <v>      -0.04414401      -0.02604768       0.09715269 </v>
   </varray>
  </crystal>
  <varray name="positions" >
   <v>       0.16039500       0.40051500       0.40051500 </v>
   <v>       0.16039500       0.40051500       0.90051500 </v>
   <v>       0.16039500       0.90051500       0.40051500 </v>
   <v>       0.16039500       0.90051500       0.90051500 </v>
   <v>       0.66039500       0.40051500       0.40051500 </v>
   <v>       0.66039500       0.40051500       0.90051500 </v>
   <v>       0.66039500       0.90051500       0.40051500 </v>
   <v>       0.66039500       0.90051500       0.90051500 </v>
   <v>       0.40051500       0.40051500       0.16039500 </v>
   <v>       0.40051500       0.40051500       0.66039500 </v>
   <v>       0.40051500       0.90051500       0.16039500 </v>
   <v>       0.40051500       0.90051500       0.66039500 </v>
   <v>       0.90051500       0.40051500       0.16039500 </v>
   <v>       0.90051500       0.40051500       0.66039500 </v>
   <v>       0.90051500       0.90051500       0.16039500 </v>
   <v>       0.90051500       0.90051500       0.66039500 </v>
   <v>       0.40051500       0.16039500       0.40051500 </v>
   <v>       0.40051500       0.16039500       0.90051500 </v>
   <v>       0.40051500       0.66039500       0.40051500 </v>
   <v>       0.40051500       0.66039500       0.90051500 </v>
   <v>       0.90051500       0.16039500       0.40051500 </v>
   <v>       0.90051500       0.16039500       0.90051500 </v>
   <v>       0.90051500       0.66039500       0.40051500 </v>
   <v>       0.90051500       0.66039500       0.90051500 </v>
   <v>       0.33960500       0.09948500       0.09948500 </v>
   <v>       0.33960500       0.09948500       0.59948500 </v>
   <v>       0.33960500       0.59948500       0.09948500 </v>
   <v>       0.33960500       0.59948500       0.59948500 </v>
   <v>       0.83960500       0.09948500       0.09948500 </v>
   <v>       0.83960500       0.09948500       0.59948500 </v>
   <v>       0.83960500       0.59948500       0.09948500 </v>
   <v>       0.83960500       0.59948500       0.59948500 </v>
   <v>       0.09948500       0.09948500       0.33960500 </v>
   <v>       0.09948500       0.09948500       0.83960500 </v>
   <v>       0.09948500       0.59948500       0.33960500 </v>
   <v>       0.09948500       0.59948500       0.83960500 </v>
   <v>       0.59948500       0.09948500       0.33960500 </v>
   <v>       0.59948500       0.09948500       0.83960500 </v>
   <v>       0.59948500       0.59948500       0.33960500 </v>
   <v>       0.59948500       0.59948500       0.83960500 </v>
   <v>       0.09948500       0.33960500       0.09948500 </v>
   <v>       0.09948500       0.33960500       0.59948500 </v>
   <v>       0.09948500       0.83960500       0.09948500 </v>
   <v>       0.09948500       0.83960500       0.59948500 </v>
   <v>       0.59948500       0.33960500       0.09948500 </v>
   <v>       0.59948500       0.33960500       0.59948500 </v>
   <v>       0.59948500       0.83960500       0.09948500 </v>
   <v>       0.59948500       0.83960500       0.59948500 </v>
   <v>       0.33229300       0.00011500       0.00011500 </v>
   <v>       0.33229300       0.00011500       0.50011500 </v>
   <v>       0.33229300       0.50011500       0.00011500 </v>
   <v>       0.33229300       0.50011500       0.50011500 </v>
   <v>       0.83229300       0.00011500       0.00011500 </v>
   <v>       0.83229300       0.00011500       0.50011500 </v>
   <v>       0.83229300       0.50011500       0.00011500 </v>
   <v>       0.83229300       0.50011500       0.50011500 </v>
   <v>       0.00011500       0.00011500       0.33229300 </v>
   <v>       0.00011500       0.00011500       0.83229300 </v>
   <v>       0.00011500       0.50011500       0.33229300 </v>
   <v>       0.00011500       0.50011500       0.83229300 </v>
   <v>       0.50011500       0.00011500       0.33229300 </v>
   <v>       0.50011500       0.00011500       0.83229300 </v>
   <v>       0.50011500       0.50011500       0.33229300 </v>
   <v>       0.50011500       0.50011500       0.83229300 </v>
   <v>       0.00011500       0.33229300       0.00011500 </v>
   <v>       0.00011500       0.33229300       0.50011500 </v>
   <v>       0.00011500       0.83229300       0.00011500 </v>
   <v>       0.00011500       0.83229300       0.50011500 </v>
   <v>       0.50011500       0.33229300       0.00011500 </v>
   <v>       0.50011500       0.33229300       0.50011500 </v>
   <v>       0.50011500       0.83229300       0.00011500 </v>
   <v>       0.50011500       0.83229300       0.50011500 </v>
   <v>       0.16770700       0.99988500       0.99988500 </v>
   <v>       0.16770700       0.99988500       0.49988500 </v>
   <v>       0.16770700       0.49988500       0.99988500 </v>
   <v>       0.16770700       0.49988500       0.49988500 </v>
   <v>       0.66770700       0.99988500       0.99988500 </v>
   <v>       0.66770700       0.99988500       0.49988500 </v>
   <v>       0.66770700       0.49988500       0.99988500 </v>
   <v>       0.66770700       0.49988500       0.49988500 </v>
   <v>       0.99988500       0.99988500       0.16770700 </v>
   <v>       0.99988500       0.99988500       0.66770700 </v>
   <v>       0.99988500       0.49988500       0.16770700 </v>
   <v>       0.99988500       0.49988500       0.66770700 </v>
   <v>       0.49988500       0.99988500       0.16770700 </v>
   <v>       0.49988500       0.99988500       0.66770700 </v>
   <v>       0.49988500       0.49988500       0.16770700 </v>
   <v>       0.49988500       0.49988500       0.66770700 </v>
   <v>       0.99988500       0.16770700       0.99988500 </v>
   <v>       0.99988500       0.16770700       0.49988500 </v>
   <v>       0.99988500       0.66770700       0.99988500 </v>
   <v>       0.99988500       0.66770700       0.49988500 </v>
   <v>       0.49988500       0.16770700       0.99988500 </v>
   <v>       0.49988500       0.16770700       0.49988500 </v>
   <v>       0.49988500       0.66770700       0.99988500 </v>
   <v>       0.49988500       0.66770700       0.49988500 </v>
   <v>       0.31539700       0.31539700       0.31539700 </v>
   <v>       0.31539700       0.31539700       0.81539700 </v>
   <v>       0.31539700       0.81539700       0.31539700 </v>
   <v>       0.31539700       0.81539700       0.81539700 </v>
   <v>       0.81539700       0.31539700       0.31539700 </v>
   <v>       0.81539700       0.31539700       0.81539700 </v>
   <v>       0.81539700       0.81539700       0.31539700 </v>
   <v>       0.81539700       0.81539700       0.81539700 </v>
   <v>       0.18460300       0.18460300       0.18460300 </v>
   <v>       0.18460300       0.18460300       0.68460300 </v>
   <v>       0.18460300       0.68460300       0.18460300 </v>
   <v>       0.18460300       0.68460300       0.68460300 </v>
   <v>       0.68460300       0.18460300       0.18460300 </v>
   <v>       0.68460300       0.18460300       0.68460300 </v>
   <v>       0.68460300       0.68460300       0.18460300 </v>
   <v>       0.68460300       0.68460300       0.68460300 </v>
  </varray>
 </structure>
 <calculation>
  <scstep>
   <time name="dav">    6.37    6.37</time>
   <time name="total">    6.67    6.67</time>
   <energy>
    <i name="alphaZ">   1035.67788958 </i>
    <i name="ewald">  -9949.87849840 </i>
    <i name="hartreedc">  -1102.71393015 </i>
    <i name="XCdc">    901.99909131 </i>
    <i name="pawpsdc">   5912.33983061 </i>
    <i name="pawaedc">  -5839.33960861 </i>
    <i name="eentropy">      0.00000000 </i>
    <i name="bandstr">   1247.51024947 </i>
    <i name="atom">   9186.75495500 </i>
    <i name="e_fr_energy">   1392.34997881 </i>
    <i name="e_wo_entrp">   1392.34997881 </i>
    <i name="e_0_energy">   1392.34997881 </i>
   </energy>
  </scstep>
  <scstep>
   <time name="dav">    7.41    7.41</time>
   <time name="total">    7.44    7.44</time>
   <energy>
    <i name="e_fr_energy">   -694.43517050 </i>
    <i name="e_wo_entrp">   -694.43517050 </i>
    <i name="e_0_energy">   -694.43517050 </i>
   </energy>
  </scstep>
  <scstep>
   <time name="dav">    7.26    7.26</time>
   <time name="total">    7.28    7.28</time>
   <energy>
    <i name="e_fr_energy">   -824.88696649 </i>
    <i name="e_wo_entrp">   -824.88696649 </i>
    <i name="e_0_energy">   -824.88696649 </i>
   </energy>
  </scstep>
  <scstep>
   <time name="dav">    7.18    7.18</time>
   <time name="total">    7.20    7.20</time>
   <energy>
    <i name="e_fr_energy">   -827.93955434 </i>
    <i name="e_wo_entrp">   -827.93955434 </i>
    <i name="e_0_energy">   -827.93955434 </i>
   </energy>
  </scstep>
  <scstep>
   <time name="dav">    7.23    7.23</time>
   <time name="total">    9.07    9.06</time>
   <energy>
    <i name="e_fr_energy">   -828.02852898 </i>
    <i name="e_wo_entrp">   -828.02852898 </i>
    <i name="e_0_energy">   -828.02852898 </i>
   </energy>
  </scstep>
  <scstep>
   <time name="diag">    1.36    1.36</time>
   <time name="diis">    5.73    5.69</time>
   <time name="orth">    0.03    0.03</time>
   <time name="total">    9.22    9.18</time>
   <energy>
    <i name="e_fr_energy">   -788.25833927 </i>
    <i name="e_wo_entrp">   -788.25833927 </i>
    <i name="e_0_energy">   -788.25833927 </i>
   </energy>
  </scstep>
  <scstep>
   <time name="diag">    1.36    1.36</time>
   <time name="diis">    5.74    5.69</time>
   <time name="orth">    0.03    0.03</time>
   <time name="total">    9.22    9.17</time>
   <energy>
    <i name="e_fr_energy">   -776.80858594 </i>
    <i name="e_wo_entrp">   -776.80858594 </i>
    <i name="e_0_energy">   -776.80858594 </i>
   </energy>
  </scstep>
  <scstep>
   <time name="diag">    1.37    1.37</time>
   <time name="diis">    5.74    5.69</time>
   <time name="orth">    0.04    0.04</time>
   <time name="total">    9.18    9.13</time>
   <energy>
    <i name="e_fr_energy">   -776.92769375 </i>
    <i name="e_wo_entrp">   -776.92769375 </i>
    <i name="e_0_energy">   -776.92769375 </i>
   </energy>
  </scstep>
  <scstep>
   <time name="diag">    1.36    1.36</time>
   <time name="diis">    5.78    5.73</time>
   <time name="orth">    0.03    0.03</time>
   <time name="total">    9.25    9.20</time>
   <energy>
    <i name="e_fr_energy">   -776.99492731 </i>
    <i name="e_wo_entrp">   -776.99492731 </i>
    <i name="e_0_energy">   -776.99492731 </i>
   </energy>
  </scstep>
  <scstep>
   <time name="diag">    1.36    1.36</time>
   <time name="diis">    5.76    5.71</time>
   <time name="orth">    0.03    0.03</time>
   <time name="total">    9.25    9.20</time>
   <energy>
    <i name="e_fr_energy">   -776.98604214 </i>
    <i name="e_wo_entrp">   -776.98604214 </i>
    <i name="e_0_energy">   -776.98604214 </i>
   </energy>
  </scstep>
  <scstep>
   <time name="diag">    1.36    1.36</time>
   <time name="diis">    5.81    5.76</time>
   <time name="orth">    0.03    0.03</time>
   <time name="total">    9.27    9.22</time>
   <energy>
    <i name="e_fr_energy">   -776.99410859 </i>
    <i name="e_wo_entrp">   -776.99410859 </i>
    <i name="e_0_energy">   -776.99410859 </i>
   </energy>
  </scstep>
  <scstep>
   <time name="diag">    1.37    1.37</time>
   <time name="diis">    5.81    5.76</time>
   <time name="orth">    0.03    0.03</time>
   <time name="total">    9.27    9.22</time>
   <energy>
    <i name="e_fr_energy">   -776.99223916 </i>
    <i name="e_wo_entrp">   -776.99223916 </i>
    <i name="e_0_energy">   -776.99223916 </i>
   </energy>
  </scstep>
  <scstep>
   <time name="diag">    1.37    1.37</time>
   <time name="diis">    5.74    5.69</time>
   <time name="orth">    0.04    0.04</time>
   <time name="total">    9.21    9.15</time>
   <energy>
    <i name="e_fr_energy">   -776.99534402 </i>
    <i name="e_wo_entrp">   -776.99534402 </i>
    <i name="e_0_energy">   -776.99534402 </i>
   </energy>
  </scstep>
  <scstep>
   <time name="diag">    1.37    1.37</time>
   <time name="diis">    5.78    5.73</time>
   <time name="orth">    0.03    0.03</time>
   <time name="total">    9.30    9.25</time>
   <energy>
    <i name="e_fr_energy">   -776.99391900 </i>
    <i name="e_wo_entrp">   -776.99391900 </i>
    <i name="e_0_energy">   -776.99391900 </i>
   </energy>
  </scstep>
  <scstep>
   <time name="diag">    1.37    1.37</time>
   <time name="diis">    5.76    5.71</time>
   <time name="orth">    0.04    0.04</time>
   <time name="total">    9.24    9.19</time>
   <energy>
    <i name="e_fr_energy">   -776.99337895 </i>
    <i name="e_wo_entrp">   -776.99337895 </i>
    <i name="e_0_energy">   -776.99337895 </i>
   </energy>
  </scstep>
  <scstep>
   <time name="diag">    1.36    1.36</time>
   <time name="diis">    5.74    5.70</time>
   <time name="orth">    0.04    0.03</time>
   <time name="total">    9.20    9.16</time>
   <energy>
    <i name="e_fr_energy">   -776.99377121 </i>
    <i name="e_wo_entrp">   -776.99377121 </i>
    <i name="e_0_energy">   -776.99377121 </i>
   </energy>
  </scstep>
  <scstep>
   <time name="diag">    1.36    1.36</time>
   <time name="diis">    5.99    5.94</time>
   <time name="orth">    0.04    0.04</time>
   <time name="total">    9.48    9.42</time>
   <energy>
    <i name="e_fr_energy">   -776.99362759 </i>
    <i name="e_wo_entrp">   -776.99362759 </i>
    <i name="e_0_energy">   -776.99362759 </i>
   </energy>
  </scstep>
  <scstep>
   <time name="diag">    1.36    1.36</time>
   <time name="diis">    5.73    5.68</time>
   <time name="orth">    0.03    0.03</time>
   <time name="total">    9.20    9.15</time>
   <energy>
    <i name="e_fr_energy">   -776.99378705 </i>
    <i name="e_wo_entrp">   -776.99378705 </i>
    <i name="e_0_energy">   -776.99378705 </i>
   </energy>
  </scstep>
  <scstep>
   <time name="diag">    1.36    1.36</time>
   <time name="diis">    5.44    5.41</time>
   <time name="orth">    0.04    0.04</time>
   <time name="total">    8.90    8.87</time>
   <energy>
    <i name="e_fr_energy">   -776.99365329 </i>
    <i name="e_wo_entrp">   -776.99365329 </i>
    <i name="e_0_energy">   -776.99365329 </i>
   </energy>
  </scstep>
  <scstep>
   <time name="diag">    1.37    1.37</time>
   <time name="diis">    5.19    5.15</time>
   <time name="orth">    0.03    0.03</time>
   <time name="total">    8.68    8.64</time>
   <energy>
    <i name="e_fr_energy">   -776.99378374 </i>
    <i name="e_wo_entrp">   -776.99378374 </i>
    <i name="e_0_energy">   -776.99378374 </i>
   </energy>
  </scstep>
  <scstep>
   <time name="diag">    1.36    1.36</time>
   <time name="diis">    3.68    3.67</time>
   <time name="orth">    0.03    0.03</time>
   <time name="total">    7.16    7.15</time>
   <energy>
    <i name="e_fr_energy">   -776.99369741 </i>
    <i name="e_wo_entrp">   -776.99369741 </i>
    <i name="e_0_energy">   -776.99369741 </i>
   </energy>
  </scstep>
  <scstep>
   <time name="diag">    1.36    1.36</time>
   <time name="diis">    5.02    4.99</time>
   <time name="orth">    0.03    0.03</time>
   <time name="total">    8.51    8.47</time>
   <energy>
    <i name="e_fr_energy">   -776.99381091 </i>
    <i name="e_wo_entrp">   -776.99381091 </i>
    <i name="e_0_energy">   -776.99381091 </i>
   </energy>
  </scstep>
  <scstep>
   <time name="diag">    1.36    1.36</time>
   <time name="diis">    3.67    3.66</time>
   <time name="orth">    0.03    0.03</time>
   <time name="total">    7.14    7.13</time>
   <energy>
    <i name="e_fr_energy">   -776.99373213 </i>
    <i name="e_wo_entrp">   -776.99373213 </i>
    <i name="e_0_energy">   -776.99373213 </i>
   </energy>
  </scstep>
  <scstep>
   <time name="diag">    1.36    1.36</time>
   <time name="diis">    3.90    3.89</time>
   <time name="orth">    0.03    0.03</time>
   <time name="total">    7.43    7.41</time>
   <energy>
    <i name="e_fr_energy">   -776.99382767 </i>
    <i name="e_wo_entrp">   -776.99382767 </i>
    <i name="e_0_energy">   -776.99382767 </i>
   </energy>
  </scstep>
  <scstep>
   <time name="diag">    1.36    1.36</time>
   <time name="diis">    3.64    3.63</time>
   <time name="orth">    0.03    0.03</time>
   <time name="total">    7.14    7.12</time>
   <energy>
    <i name="e_fr_energy">   -776.99375503 </i>
    <i name="e_wo_entrp">   -776.99375503 </i>
    <i name="e_0_energy">   -776.99375503 </i>
   </energy>
  </scstep>
  <scstep>
   <time name="diag">    1.37    1.37</time>
   <time name="diis">    3.59    3.58</time>
   <time name="orth">    0.04    0.04</time>
   <time name="total">    7.09    7.08</time>
   <energy>
    <i name="e_fr_energy">   -776.99372424 </i>
    <i name="e_wo_entrp">   -776.99372424 </i>
    <i name="e_0_energy">   -776.99372424 </i>
   </energy>
  </scstep>
  <scstep>
   <time name="diag">    1.36    1.36</time>
   <time name="diis">    3.64    3.63</time>
   <time name="orth">    0.03    0.03</time>
   <time name="total">    7.13    7.11</time>
   <energy>
    <i name="e_fr_energy">   -776.99381597 </i>
    <i name="e_wo_entrp">   -776.99381597 </i>
    <i name="e_0_energy">   -776.99381597 </i>
   </energy>
  </scstep>
  <scstep>
   <time name="diag">    1.36    1.36</time>
   <time name="diis">    3.56    3.55</time>
   <time name="orth">    0.03    0.03</time>
   <time name="total">    7.07    7.06</time>
   <energy>
    <i name="e_fr_energy">   -776.99374207 </i>
    <i name="e_wo_entrp">   -776.99374207 </i>
    <i name="e_0_energy">   -776.99374207 </i>
   </energy>
  </scstep>
  <scstep>
   <time name="diag">    1.36    1.36</time>
   <time name="diis">    3.54    3.53</time>
   <time name="orth">    0.03    0.03</time>
   <time name="total">    7.05    7.04</time>
   <energy>
    <i name="e_fr_energy">   -776.99373693 </i>
    <i name="e_wo_entrp">   -776.99373693 </i>
    <i name="e_0_energy">   -776.99373693 </i>
   </energy>
  </scstep>
  <scstep>
   <time name="diag">    1.36    1.36</time>
   <time name="diis">    2.72    2.72</time>
   <time name="orth">    0.03    0.03</time>
   <time name="total">    6.25    6.24</time>
   <energy>
    <i name="e_fr_energy">   -776.99373810 </i>
    <i name="e_wo_entrp">   -776.99373810 </i>
    <i name="e_0_energy">   -776.99373810 </i>
   </energy>
  </scstep>
  <scstep>
   <time name="diag">    1.36    1.36</time>
   <time name="diis">    3.52    3.52</time>
   <time name="orth">    0.04    0.04</time>
   <time name="total">    7.05    7.04</time>
   <energy>
    <i name="e_fr_energy">   -776.99367125 </i>
    <i name="e_wo_entrp">   -776.99367125 </i>
    <i name="e_0_energy">   -776.99367125 </i>
   </energy>
  </scstep>
  <scstep>
   <time name="diag">    1.37    1.37</time>
   <time name="diis">    5.78    5.73</time>
   <time name="orth">    0.03    0.03</time>
   <time name="total">    9.33    9.28</time>
   <energy>
    <i name="e_fr_energy">   -776.99384783 </i>
    <i name="e_wo_entrp">   -776.99384783 </i>
    <i name="e_0_energy">   -776.99384783 </i>
   </energy>
  </scstep>
  <scstep>
   <time name="diag">    1.36    1.36</time>
   <time name="diis">    5.54    5.50</time>
   <time name="orth">    0.04    0.04</time>
   <time name="total">    9.07    9.03</time>
   <energy>
    <i name="e_fr_energy">   -776.99369642 </i>
    <i name="e_wo_entrp">   -776.99369642 </i>
    <i name="e_0_energy">   -776.99369642 </i>
   </energy>
  </scstep>
  <scstep>
   <time name="diag">    1.36    1.36</time>
   <time name="diis">    5.69    5.65</time>
   <time name="orth">    0.03    0.03</time>
   <time name="total">    9.22    9.18</time>
   <energy>
    <i name="e_fr_energy">   -776.99385560 </i>
    <i name="e_wo_entrp">   -776.99385560 </i>
    <i name="e_0_energy">   -776.99385560 </i>
   </energy>
  </scstep>
  <scstep>
   <time name="diag">    1.36    1.36</time>
   <time name="diis">    5.22    5.19</time>
   <time name="orth">    0.03    0.03</time>
   <time name="total">    8.75    8.73</time>
   <energy>
    <i name="e_fr_energy">   -776.99372255 </i>
    <i name="e_wo_entrp">   -776.99372255 </i>
    <i name="e_0_energy">   -776.99372255 </i>
   </energy>
  </scstep>
  <scstep>
   <time name="diag">    1.36    1.36</time>
   <time name="diis">    5.66    5.62</time>
   <time name="orth">    0.03    0.03</time>
   <time name="total">    9.20    9.15</time>
   <energy>
    <i name="e_fr_energy">   -776.99387596 </i>
    <i name="e_wo_entrp">   -776.99387596 </i>
    <i name="e_0_energy">   -776.99387596 </i>
   </energy>
  </scstep>
  <scstep>
   <time name="diag">    1.36    1.36</time>
   <time name="diis">    4.95    4.93</time>
   <time name="orth">    0.03    0.03</time>
   <time name="total">    8.51    8.48</time>
   <energy>
    <i name="e_fr_energy">   -776.99375425 </i>
    <i name="e_wo_entrp">   -776.99375425 </i>
    <i name="e_0_energy">   -776.99375425 </i>
   </energy>
  </scstep>
  <scstep>
   <time name="diag">    1.37    1.37</time>
   <time name="diis">    3.48    3.47</time>
   <time name="orth">    0.03    0.03</time>
   <time name="total">    7.06    7.05</time>
   <energy>
    <i name="e_fr_energy">   -776.99372984 </i>
    <i name="e_wo_entrp">   -776.99372984 </i>
    <i name="e_0_energy">   -776.99372984 </i>
   </energy>
  </scstep>
  <scstep>
   <time name="diag">    1.36    1.36</time>
   <time name="diis">    5.66    5.62</time>
   <time name="orth">    0.04    0.04</time>
   <time name="total">    9.21    9.17</time>
   <energy>
    <i name="e_fr_energy">   -776.99388005 </i>
    <i name="e_wo_entrp">   -776.99388005 </i>
    <i name="e_0_energy">   -776.99388005 </i>
   </energy>
  </scstep>
  <scstep>
   <time name="diag">    1.36    1.36</time>
   <time name="diis">    5.13    5.09</time>
   <time name="orth">    0.03    0.03</time>
   <time name="total">    8.68    8.64</time>
   <energy>
    <i name="e_fr_energy">   -776.99375203 </i>
    <i name="e_wo_entrp">   -776.99375203 </i>
    <i name="e_0_energy">   -776.99375203 </i>
   </energy>
  </scstep>
  <scstep>
   <time name="diag">    1.36    1.36</time>
   <time name="diis">    3.46    3.45</time>
   <time name="orth">    0.03    0.03</time>
   <time name="total">    7.02    7.01</time>
   <energy>
    <i name="e_fr_energy">   -776.99373165 </i>
    <i name="e_wo_entrp">   -776.99373165 </i>
    <i name="e_0_energy">   -776.99373165 </i>
   </energy>
  </scstep>
  <scstep>
   <time name="diag">    1.36    1.36</time>
   <time name="diis">    5.53    5.48</time>
   <time name="orth">    0.03    0.03</time>
   <time name="total">    9.13    9.08</time>
   <energy>
    <i name="e_fr_energy">   -776.99387133 </i>
    <i name="e_wo_entrp">   -776.99387133 </i>
    <i name="e_0_energy">   -776.99387133 </i>
   </energy>
  </scstep>
  <scstep>
   <time name="diag">    1.36    1.36</time>
   <time name="diis">    5.01    4.98</time>
   <time name="orth">    0.03    0.03</time>
   <time name="total">    8.59    8.56</time>
   <energy>
    <i name="e_fr_energy">   -776.99374686 </i>
    <i name="e_wo_entrp">   -776.99374686 </i>
    <i name="e_0_energy">   -776.99374686 </i>
   </energy>
  </scstep>
  <scstep>
   <time name="diag">    1.37    1.37</time>
   <time name="diis">    3.43    3.42</time>
   <time name="orth">    0.03    0.03</time>
   <time name="total">    7.02    7.02</time>
   <energy>
    <i name="e_fr_energy">   -776.99372962 </i>
    <i name="e_wo_entrp">   -776.99372962 </i>
    <i name="e_0_energy">   -776.99372962 </i>
   </energy>
  </scstep>
  <scstep>
   <time name="diag">    1.36    1.36</time>
   <time name="diis">    5.33    5.29</time>
   <time name="orth">    0.03    0.03</time>
   <time name="total">    8.89    8.86</time>
   <energy>
    <i name="e_fr_energy">   -776.99385874 </i>
    <i name="e_wo_entrp">   -776.99385874 </i>
    <i name="e_0_energy">   -776.99385874 </i>
   </energy>
  </scstep>
  <scstep>
   <time name="diag">    1.36    1.36</time>
   <time name="diis">    4.88    4.84</time>
   <time name="orth">    0.03    0.03</time>
   <time name="total">    8.45    8.42</time>
   <energy>
    <i name="e_fr_energy">   -776.99374049 </i>
    <i name="e_wo_entrp">   -776.99374049 </i>
    <i name="e_0_energy">   -776.99374049 </i>
   </energy>
  </scstep>
  <scstep>
   <time name="diag">    1.36    1.36</time>
   <time name="diis">    3.42    3.41</time>
   <time name="orth">    0.03    0.03</time>
   <time name="total">    7.00    6.99</time>
   <energy>
    <i name="e_fr_energy">   -776.99372354 </i>
    <i name="e_wo_entrp">   -776.99372354 </i>
    <i name="e_0_energy">   -776.99372354 </i>
   </energy>
  </scstep>
  <scstep>
   <time name="diag">    1.36    1.36</time>
   <time name="diis">    5.04    5.01</time>
   <time name="orth">    0.03    0.03</time>
   <time name="total">    8.66    8.63</time>
   <energy>
    <i name="e_fr_energy">   -776.99384301 </i>
    <i name="e_wo_entrp">   -776.99384301 </i>
    <i name="e_0_energy">   -776.99384301 </i>
   </energy>
  </scstep>
  <scstep>
   <time name="diag">    1.36    1.36</time>
   <time name="diis">    4.60    4.58</time>
   <time name="orth">    0.04    0.04</time>
   <time name="total">    8.20    8.18</time>
   <energy>
    <i name="e_fr_energy">   -776.99373036 </i>
    <i name="e_wo_entrp">   -776.99373036 </i>
    <i name="e_0_energy">   -776.99373036 </i>
   </energy>
  </scstep>
  <scstep>
   <time name="diag">    1.36    1.36</time>
   <time name="diis">    5.05    5.01</time>
   <time name="orth">    0.04    0.04</time>
   <time name="total">    8.64    8.61</time>
   <energy>
    <i name="e_fr_energy">   -776.99385180 </i>
    <i name="e_wo_entrp">   -776.99385180 </i>
    <i name="e_0_energy">   -776.99385180 </i>
   </energy>
  </scstep>
  <scstep>
   <time name="diag">    1.36    1.36</time>
   <time name="diis">    3.66    3.65</time>
   <time name="orth">    0.03    0.03</time>
   <time name="total">    7.29    7.28</time>
   <energy>
    <i name="e_fr_energy">   -776.99375120 </i>
    <i name="e_wo_entrp">   -776.99375120 </i>
    <i name="e_0_energy">   -776.99375120 </i>
   </energy>
  </scstep>
  <scstep>
   <time name="diag">    1.36    1.36</time>
   <time name="diis">    3.39    3.38</time>
   <time name="orth">    0.03    0.03</time>
   <time name="total">    7.01    7.00</time>
   <energy>
    <i name="e_fr_energy">   -776.99373486 </i>
    <i name="e_wo_entrp">   -776.99373486 </i>
    <i name="e_0_energy">   -776.99373486 </i>
   </energy>
  </scstep>
  <scstep>
   <time name="diag">    1.36    1.36</time>
   <time name="diis">    3.38    3.38</time>
   <time name="orth">    0.03    0.03</time>
   <time name="total">    6.98    6.98</time>
   <energy>
    <i name="e_fr_energy">   -776.99369926 </i>
    <i name="e_wo_entrp">   -776.99369926 </i>
    <i name="e_0_energy">   -776.99369926 </i>
   </energy>
  </scstep>
  <scstep>
   <time name="diag">    1.36    1.36</time>
   <time name="diis">    5.21    5.18</time>
   <time name="orth">    0.04    0.04</time>
   <time name="total">    8.82    8.78</time>
   <energy>
    <i name="e_fr_energy">   -776.99382379 </i>
    <i name="e_wo_entrp">   -776.99382379 </i>
    <i name="e_0_energy">   -776.99382379 </i>
   </energy>
  </scstep>
  <scstep>
   <time name="diag">    1.36    1.36</time>
   <time name="diis">    3.45    3.44</time>
   <time name="orth">    0.04    0.04</time>
   <time name="total">    7.03    7.02</time>
   <energy>
    <i name="e_fr_energy">   -776.99372750 </i>
    <i name="e_wo_entrp">   -776.99372750 </i>
    <i name="e_0_energy">   -776.99372750 </i>
   </energy>
  </scstep>
  <scstep>
   <time name="diag">    1.37    1.37</time>
   <time name="diis">    3.37    3.36</time>
   <time name="orth">    0.04    0.04</time>
   <time name="total">    6.97    6.97</time>
   <energy>
    <i name="e_fr_energy">   -776.99378449 </i>
    <i name="e_wo_entrp">   -776.99378449 </i>
    <i name="e_0_energy">   -776.99378449 </i>
   </energy>
  </scstep>
  <scstep>
   <time name="diag">    1.36    1.36</time>
   <time name="diis">    3.34    3.34</time>
   <time name="orth">    0.03    0.03</time>
   <time name="total">    6.95    6.94</time>
   <energy>
    <i name="e_fr_energy">   -776.99376170 </i>
    <i name="e_wo_entrp">   -776.99376170 </i>
    <i name="e_0_energy">   -776.99376170 </i>
   </energy>
  </scstep>
  <scstep>
   <time name="diag">    1.36    1.36</time>
   <time name="diis">    3.32    3.31</time>
   <time name="orth">    0.03    0.03</time>
   <time name="total">    6.92    6.91</time>
   <energy>
    <i name="e_fr_energy">   -776.99375329 </i>
    <i name="e_wo_entrp">   -776.99375329 </i>
    <i name="e_0_energy">   -776.99375329 </i>
   </energy>
  </scstep>
  <scstep>
   <time name="diag">    1.36    1.36</time>
   <time name="diis">    2.48    2.48</time>
   <time name="orth">    0.03    0.03</time>
   <time name="total">    6.09    6.08</time>
   <energy>
    <i name="e_fr_energy">   -776.99374851 </i>
    <i name="e_wo_entrp">   -776.99374851 </i>
    <i name="e_0_energy">   -776.99374851 </i>
   </energy>
  </scstep>
  <scstep>
   <time name="diag">    1.36    1.36</time>
   <time name="diis">    3.33    3.32</time>
   <time name="orth">    0.03    0.03</time>
   <time name="total">    5.01    5.00</time>
   <energy>
    <i name="alphaZ">   1035.67788958 </i>
    <i name="ewald">  -9949.87849840 </i>
    <i name="hartreedc">  -1550.44987474 </i>
    <i name="XCdc">    933.61711362 </i>
    <i name="pawpsdc">  33846.21539221 </i>
    <i name="pawaedc"> -33783.61277198 </i>
    <i name="eentropy">      0.00000000 </i>
    <i name="bandstr">   -495.31793135 </i>
    <i name="atom">   9186.75495500 </i>
    <i name="e_fr_energy">   -776.99372608 </i>
    <i name="e_wo_entrp">   -776.99372608 </i>
    <i name="e_0_energy">   -776.99372608 </i>
   </energy>
  </scstep>
  <structure>
   <crystal>
    <varray name="basis" >
     <v>       9.43657600       0.07163600       4.30697600 </v>
     <v>       4.23613700       8.88502600       4.30697700 </v>
     <v>       0.10935500       0.07163600      10.36197100 </v>
    </varray>
    <i name="volume">    859.89143700 </i>
    <varray name="rec_basis" >
     <v>       0.10670864      -0.05049909      -0.00077703 </v>
     <v>      -0.00050443       0.11316607      -0.00077703 </v>
     <v>      -0.04414401      -0.02604768       0.09715269 </v>
    </varray>
   </crystal>
   <varray name="positions" >
    <v>       0.16039500       0.40051500       0.40051500 </v>
    <v>       0.16039500       0.40051500       0.90051500 </v>
    <v>       0.16039500       0.90051500       0.40051500 </v>
    <v>       0.16039500       0.90051500       0.90051500 </v>
    <v>       0.66039500       0.40051500       0.40051500 </v>
    <v>       0.66039500       0.40051500       0.90051500 </v>
    <v>       0.66039500       0.90051500       0.40051500 </v>
    <v>       0.66039500       0.90051500       0.90051500 </v>
    <v>       0.40051500       0.40051500       0.16039500 </v>
    <v>       0.40051500       0.40051500       0.66039500 </v>
    <v>       0.40051500       0.90051500       0.16039500 </v>
    <v>       0.40051500       0.90051500       0.66039500 </v>
    <v>       0.90051500       0.40051500       0.16039500 </v>
    <v>       0.90051500       0.40051500       0.66039500 </v>
    <v>       0.90051500       0.90051500       0.16039500 </v>
    <v>       0.90051500       0.90051500       0.66039500 </v>
    <v>       0.40051500       0.16039500       0.40051500 </v>
    <v>       0.40051500       0.16039500       0.90051500 </v>
    <v>       0.40051500       0.66039500       0.40051500 </v>
    <v>       0.40051500       0.66039500       0.90051500 </v>
    <v>       0.90051500       0.16039500       0.40051500 </v>
    <v>       0.90051500       0.16039500       0.90051500 </v>
    <v>       0.90051500       0.66039500       0.40051500 </v>
    <v>       0.90051500       0.66039500       0.90051500 </v>
    <v>       0.33960500       0.09948500       0.09948500 </v>
    <v>       0.33960500       0.09948500       0.59948500 </v>
    <v>       0.33960500       0.59948500       0.09948500 </v>
    <v>       0.33960500       0.59948500       0.59948500 </v>
    <v>       0.83960500       0.09948500       0.09948500 </v>
    <v>       0.83960500       0.09948500       0.59948500 </v>
    <v>       0.83960500       0.59948500       0.09948500 </v>
    <v>       0.83960500       0.59948500       0.59948500 </v>
    <v>       0.09948500       0.09948500       0.33960500 </v>
    <v>       0.09948500       0.09948500       0.83960500 </v>
    <v>       0.09948500       0.59948500       0.33960500 </v>
    <v>       0.09948500       0.59948500       0.83960500 </v>
    <v>       0.59948500       0.09948500       0.33960500 </v>
    <v>       0.59948500       0.09948500       0.83960500 </v>
    <v>       0.59948500       0.59948500       0.33960500 </v>
    <v>       0.59948500       0.59948500       0.83960500 </v>
    <v>       0.09948500       0.33960500       0.09948500 </v>
    <v>       0.09948500       0.33960500       0.59948500 </v>
    <v>       0.09948500       0.83960500       0.09948500 </v>
    <v>       0.09948500       0.83960500       0.59948500 </v>
    <v>       0.59948500       0.33960500       0.09948500 </v>
    <v>       0.59948500       0.33960500       0.59948500 </v>
    <v>       0.59948500       0.83960500       0.09948500 </v>
    <v>       0.59948500       0.83960500       0.59948500 </v>
    <v>       0.33229300       0.00011500       0.00011500 </v>
    <v>       0.33229300       0.00011500       0.50011500 </v>
    <v>       0.33229300       0.50011500       0.00011500 </v>
    <v>       0.33229300       0.50011500       0.50011500 </v>
    <v>       0.83229300       0.00011500       0.00011500 </v>
    <v>       0.83229300       0.00011500       0.50011500 </v>
    <v>       0.83229300       0.50011500       0.00011500 </v>
    <v>       0.83229300       0.50011500       0.50011500 </v>
    <v>       0.00011500       0.00011500       0.33229300 </v>
    <v>       0.00011500       0.00011500       0.83229300 </v>
    <v>       0.00011500       0.50011500       0.33229300 </v>
    <v>       0.00011500       0.50011500       0.83229300 </v>
    <v>       0.50011500       0.00011500       0.33229300 </v>
    <v>       0.50011500       0.00011500       0.83229300 </v>
    <v>       0.50011500       0.50011500       0.33229300 </v>
    <v>       0.50011500       0.50011500       0.83229300 </v>
    <v>       0.00011500       0.33229300       0.00011500 </v>
    <v>       0.00011500       0.33229300       0.50011500 </v>
    <v>       0.00011500       0.83229300       0.00011500 </v>
    <v>       0.00011500       0.83229300       0.50011500 </v>
    <v>       0.50011500       0.33229300       0.00011500 </v>
    <v>       0.50011500       0.33229300       0.50011500 </v>
    <v>       0.50011500       0.83229300       0.00011500 </v>
    <v>       0.50011500       0.83229300       0.50011500 </v>
    <v>       0.16770700       0.99988500       0.99988500 </v>
    <v>       0.16770700       0.99988500       0.49988500 </v>
    <v>       0.16770700       0.49988500       0.99988500 </v>
    <v>       0.16770700       0.49988500       0.49988500 </v>
    <v>       0.66770700       0.99988500       0.99988500 </v>
    <v>       0.66770700       0.99988500       0.49988500 </v>
    <v>       0.66770700       0.49988500       0.99988500 </v>
    <v>       0.66770700       0.49988500       0.49988500 </v>
    <v>       0.99988500       0.99988500       0.16770700 </v>
    <v>       0.99988500       0.99988500       0.66770700 </v>
    <v>       0.99988500       0.49988500       0.16770700 </v>
    <v>       0.99988500       0.49988500       0.66770700 </v>
    <v>       0.49988500       0.99988500       0.16770700 </v>
    <v>       0.49988500       0.99988500       0.66770700 </v>
    <v>       0.49988500       0.49988500       0.16770700 </v>
    <v>       0.49988500       0.49988500       0.66770700 </v>
    <v>       0.99988500       0.16770700       0.99988500 </v>
    <v>       0.99988500       0.16770700       0.49988500 </v>
    <v>       0.99988500       0.66770700       0.99988500 </v>
    <v>       0.99988500       0.66770700       0.49988500 </v>
    <v>       0.49988500       0.16770700       0.99988500 </v>
    <v>       0.49988500       0.16770700       0.49988500 </v>
    <v>       0.49988500       0.66770700       0.99988500 </v>
    <v>       0.49988500       0.66770700       0.49988500 </v>
    <v>       0.31539700       0.31539700       0.31539700 </v>
    <v>       0.31539700       0.31539700       0.81539700 </v>
    <v>       0.31539700       0.81539700       0.31539700 </v>
    <v>       0.31539700       0.81539700       0.81539700 </v>
    <v>       0.81539700       0.31539700       0.31539700 </v>
    <v>       0.81539700       0.31539700       0.81539700 </v>
    <v>       0.81539700       0.81539700       0.31539700 </v>
    <v>       0.81539700       0.81539700       0.81539700 </v>
    <v>       0.18460300       0.18460300       0.18460300 </v>
    <v>       0.18460300       0.18460300       0.68460300 </v>
    <v>       0.18460300       0.68460300       0.18460300 </v>
    <v>       0.18460300       0.68460300       0.68460300 </v>
    <v>       0.68460300       0.18460300       0.18460300 </v>
    <v>       0.68460300       0.18460300       0.68460300 </v>
    <v>       0.68460300       0.68460300       0.18460300 </v>
    <v>       0.68460300       0.68460300       0.68460300 </v>
   </varray>
  </structure>
  <varray name="forces" >
   <v>      -0.72250005       0.36890943       1.01353658 </v>
   <v>      -0.72250005       0.36890943       1.01353658 </v>
   <v>      -0.72250005       0.36890943       1.01353658 </v>
   <v>      -0.72250005       0.36890943       1.01353658 </v>
   <v>      -0.72250005       0.36890943       1.01353658 </v>
   <v>      -0.72250005       0.36890943       1.01353658 </v>
   <v>      -0.72250005       0.36890943       1.01353658 </v>
   <v>      -0.72250005       0.36890943       1.01353658 </v>
   <v>      -0.28891298       0.34824151       0.69982865 </v>
   <v>      -0.28891298       0.34824151       0.69982865 </v>
   <v>      -0.28891298       0.34824151       0.69982865 </v>
   <v>      -0.28891298       0.34824151       0.69982865 </v>
   <v>      -0.28891298       0.34824151       0.69982865 </v>
   <v>      -0.28891298       0.34824151       0.69982865 </v>
   <v>      -0.28891298       0.34824151       0.69982865 </v>
   <v>      -0.28891298       0.34824151       0.69982865 </v>
   <v>      -0.83068789      -0.27491493       0.12932408 </v>
   <v>      -0.83068789      -0.27491493       0.12932408 </v>
   <v>      -0.83068789      -0.27491493       0.12932408 </v>
   <v>      -0.83068789      -0.27491493       0.12932408 </v>
   <v>      -0.83068789      -0.27491493       0.12932408 </v>
   <v>      -0.83068789      -0.27491493       0.12932408 </v>
   <v>      -0.83068789      -0.27491493       0.12932408 </v>
   <v>      -0.83068789      -0.27491493       0.12932408 </v>
   <v>       0.72250005      -0.36890943      -1.01353658 </v>
   <v>       0.72250005      -0.36890943      -1.01353658 </v>
   <v>       0.72250005      -0.36890943      -1.01353658 </v>
   <v>       0.72250005      -0.36890943      -1.01353658 </v>
   <v>       0.72250005      -0.36890943      -1.01353658 </v>
   <v>       0.72250005      -0.36890943      -1.01353658 </v>
   <v>       0.72250005      -0.36890943      -1.01353658 </v>
   <v>       0.72250005      -0.36890943      -1.01353658 </v>
   <v>       0.28891298      -0.34824151      -0.69982865 </v>
   <v>       0.28891298      -0.34824151      -0.69982865 </v>
   <v>       0.28891298      -0.34824151      -0.69982865 </v>
   <v>       0.28891298      -0.34824151      -0.69982865 </v>
   <v>       0.28891298      -0.34824151      -0.69982865 </v>
   <v>       0.28891298      -0.34824151      -0.69982865 </v>
   <v>       0.28891298      -0.34824151      -0.69982865 </v>
   <v>       0.28891298      -0.34824151      -0.69982865 </v>
   <v>       0.83068789       0.27491493      -0.12932408 </v>
   <v>       0.83068789       0.27491493      -0.12932408 </v>
   <v>       0.83068789       0.27491493      -0.12932408 </v>
   <v>       0.83068789       0.27491493      -0.12932408 </v>
   <v>       0.83068789       0.27491493      -0.12932408 </v>
   <v>       0.83068789       0.27491493      -0.12932408 </v>
   <v>       0.83068789       0.27491493      -0.12932408 </v>
   <v>       0.83068789       0.27491493      -0.12932408 </v>
   <v>      -0.33513806       0.80237783      -0.11954278 </v>
   <v>      -0.33513806       0.80237783      -0.11954278 </v>
   <v>      -0.33513806       0.80237783      -0.11954278 </v>
   <v>      -0.33513806       0.80237783      -0.11954278 </v>
   <v>      -0.33513806       0.80237783      -0.11954278 </v>
   <v>      -0.33513806       0.80237783      -0.11954278 </v>
   <v>      -0.33513806       0.80237783      -0.11954278 </v>
   <v>      -0.33513806       0.80237783      -0.11954278 </v>
   <v>      -0.28401135       0.08491567      -0.49150677 </v>
   <v>      -0.28401135       0.08491567      -0.49150677 </v>
   <v>      -0.28401135       0.08491567      -0.49150677 </v>
   <v>      -0.28401135       0.08491567      -0.49150677 </v>
   <v>      -0.28401135       0.08491567      -0.49150677 </v>
   <v>      -0.28401135       0.08491567      -0.49150677 </v>
   <v>      -0.28401135       0.08491567      -0.49150677 </v>
   <v>      -0.28401135       0.08491567      -0.49150677 </v>
   <v>       0.52469725      -0.68760466      -0.25257604 </v>
   <v>       0.52469725      -0.68760466      -0.25257604 </v>
   <v>       0.52469725      -0.68760466      -0.25257604 </v>
   <v>       0.52469725      -0.68760466      -0.25257604 </v>
   <v>       0.52469725      -0.68760466      -0.25257604 </v>
   <v>       0.52469725      -0.68760466      -0.25257604 </v>
   <v>       0.52469725      -0.68760466      -0.25257604 </v>
   <v>       0.52469725      -0.68760466      -0.25257604 </v>
   <v>       0.33513806      -0.80237783       0.11954278 </v>
   <v>       0.33513806      -0.80237783       0.11954278 </v>
   <v>       0.33513806      -0.80237783       0.11954278 </v>
   <v>       0.33513806      -0.80237783       0.11954278 </v>
   <v>       0.33513806      -0.80237783       0.11954278 </v>
   <v>       0.33513806      -0.80237783       0.11954278 </v>
   <v>       0.33513806      -0.80237783       0.11954278 </v>
   <v>       0.33513806      -0.80237783       0.11954278 </v>
   <v>       0.28401135      -0.08491567       0.49150677 </v>
   <v>       0.28401135      -0.08491567       0.49150677 </v>
   <v>       0.28401135      -0.08491567       0.49150677 </v>
   <v>       0.28401135      -0.08491567       0.49150677 </v>
   <v>       0.28401135      -0.08491567       0.49150677 </v>
   <v>       0.28401135      -0.08491567       0.49150677 </v>
   <v>       0.28401135      -0.08491567       0.49150677 </v>
   <v>       0.28401135      -0.08491567       0.49150677 </v>
   <v>      -0.52469725       0.68760466       0.25257604 </v>
   <v>      -0.52469725       0.68760466       0.25257604 </v>
   <v>      -0.52469725       0.68760466       0.25257604 </v>
   <v>      -0.52469725       0.68760466       0.25257604 </v>
   <v>      -0.52469725       0.68760466       0.25257604 </v>
   <v>      -0.52469725       0.68760466       0.25257604 </v>
   <v>      -0.52469725       0.68760466       0.25257604 </v>
   <v>      -0.52469725       0.68760466       0.25257604 </v>
   <v>       2.15217210       0.44176492      -1.69062839 </v>
   <v>       2.15217210       0.44176492      -1.69062839 </v>
   <v>       2.15217210       0.44176492      -1.69062839 </v>
   <v>       2.15217210       0.44176492      -1.69062839 </v>
   <v>       2.15217210       0.44176492      -1.69062839 </v>
   <v>       2.15217210       0.44176492      -1.69062839 </v>
   <v>       2.15217210       0.44176492      -1.69062839 </v>
   <v>       2.15217210       0.44176492      -1.69062839 </v>
   <v>      -2.15217210      -0.44176492       1.69062839 </v>
   <v>      -2.15217210      -0.44176492       1.69062839 </v>
   <v>      -2.15217210      -0.44176492       1.69062839 </v>
   <v>      -2.15217210      -0.44176492       1.69062839 </v>
   <v>      -2.15217210      -0.44176492       1.69062839 </v>
   <v>      -2.15217210      -0.44176492       1.69062839 </v>
   <v>      -2.15217210      -0.44176492       1.69062839 </v>
   <v>      -2.15217210      -0.44176492       1.69062839 </v>
  </varray>
  <varray name="stress" >
   <v>      52.05895957    -374.97986779      11.40287648 </v>
   <v>    -374.97986784     171.56594905      28.38753484 </v>
   <v>      11.40287644      28.38753479      13.83789313 </v>
  </varray>
  <energy>
   <i name="e_fr_energy">   -776.99372608 </i>
   <i name="e_wo_entrp">   -776.99372608 </i>
   <i name="e_0_energy">   -776.99372608 </i>
  </energy>
  <time name="totalsc">  506.67  505.23</time>
 </calculation>
 <calculation>
  <scstep>
   <time name="dav">    6.73    6.73</time>
   <time name="total">    8.79    8.78</time>
   <energy>
    <i name="alphaZ">   1035.67788958 </i>
    <i name="ewald"> -10019.18099044 </i>
    <i name="hartreedc">  -1479.42666688 </i>
    <i name="XCdc">    932.32292247 </i>
    <i name="pawpsdc">  33845.94639871 </i>
    <i name="pawaedc"> -33783.34365017 </i>
    <i name="eentropy">      0.00000000 </i>
    <i name="bandstr">   -513.26154827 </i>
    <i name="atom">   9186.75495500 </i>
    <i name="e_fr_energy">   -794.51069001 </i>
    <i name="e_wo_entrp">   -794.51069001 </i>
    <i name="e_0_energy">   -794.51069001 </i>
   </energy>
  </scstep>
  <scstep>
   <time name="diag">    1.36    1.36</time>
   <time name="diis">    5.72    5.68</time>
   <time name="orth">    0.04    0.04</time>
   <time name="total">    9.18    9.13</time>
   <energy>
    <i name="e_fr_energy">   -787.20866312 </i>
    <i name="e_wo_entrp">   -787.20866312 </i>
    <i name="e_0_energy">   -787.20866312 </i>
   </energy>
  </scstep>
  <scstep>
   <time name="diag">    1.36    1.36</time>
   <time name="diis">    5.76    5.72</time>
   <time name="orth">    0.03    0.03</time>
   <time name="total">    9.23    9.19</time>
   <energy>
    <i name="e_fr_energy">   -782.64864917 </i>
    <i name="e_wo_entrp">   -782.64864917 </i>
    <i name="e_0_energy">   -782.64864917 </i>
   </energy>
  </scstep>
  <scstep>
   <time name="diag">    1.37    1.37</time>
   <time name="diis">    5.75    5.70</time>
   <time name="orth">    0.03    0.03</time>
   <time name="total">    9.23    9.18</time>
   <energy>
    <i name="e_fr_energy">   -782.13986413 </i>
    <i name="e_wo_entrp">   -782.13986413 </i>
    <i name="e_0_energy">   -782.13986413 </i>
   </energy>
  </scstep>
  <scstep>
   <time name="diag">    1.37    1.37</time>
   <time name="diis">    5.89    5.85</time>
   <time name="orth">    0.03    0.03</time>
   <time name="total">    9.38    9.33</time>
   <energy>
    <i name="e_fr_energy">   -782.17202704 </i>
    <i name="e_wo_entrp">   -782.17202704 </i>
    <i name="e_0_energy">   -782.17202704 </i>
   </energy>
  </scstep>
  <scstep>
   <time name="diag">    1.37    1.37</time>
   <time name="diis">    5.82    5.79</time>
   <time name="orth">    0.04    0.04</time>
   <time name="total">    9.29    9.25</time>
   <energy>
    <i name="e_fr_energy">   -782.18312533 </i>
    <i name="e_wo_entrp">   -782.18312533 </i>
    <i name="e_0_energy">   -782.18312533 </i>
   </energy>
  </scstep>
  <scstep>
   <time name="diag">    1.36    1.36</time>
   <time name="diis">    5.78    5.74</time>
   <time name="orth">    0.03    0.03</time>
   <time name="total">    9.26    9.21</time>
   <energy>
    <i name="e_fr_energy">   -782.18463311 </i>
    <i name="e_wo_entrp">   -782.18463311 </i>
    <i name="e_0_energy">   -782.18463311 </i>
   </energy>
  </scstep>
  <scstep>
   <time name="diag">    1.36    1.36</time>
   <time name="diis">    6.00    5.94</time>
   <time name="orth">    0.03    0.03</time>
   <time name="total">    9.45    9.39</time>
   <energy>
    <i name="e_fr_energy">   -782.18509789 </i>
    <i name="e_wo_entrp">   -782.18509789 </i>
    <i name="e_0_energy">   -782.18509789 </i>
   </energy>
  </scstep>
  <scstep>
   <time name="diag">    1.36    1.36</time>
   <time name="diis">    5.81    5.77</time>
   <time name="orth">    0.04    0.04</time>
   <time name="total">    9.28    9.24</time>
   <energy>
    <i name="e_fr_energy">   -782.18521687 </i>
    <i name="e_wo_entrp">   -782.18521687 </i>
    <i name="e_0_energy">   -782.18521687 </i>
   </energy>
  </scstep>
  <scstep>
   <time name="diag">    1.36    1.36</time>
   <time name="diis">    6.00    5.95</time>
   <time name="orth">    0.03    0.03</time>
   <time name="total">    9.50    9.45</time>
   <energy>
    <i name="e_fr_energy">   -782.18523906 </i>
    <i name="e_wo_entrp">   -782.18523906 </i>
    <i name="e_0_energy">   -782.18523906 </i>
   </energy>
  </scstep>
  <scstep>
   <time name="diag">    1.37    1.37</time>
   <time name="diis">    5.87    5.83</time>
   <time name="orth">    0.03    0.03</time>
   <time name="total">    9.34    9.30</time>
   <energy>
    <i name="e_fr_energy">   -782.18524500 </i>
    <i name="e_wo_entrp">   -782.18524500 </i>
    <i name="e_0_energy">   -782.18524500 </i>
   </energy>
  </scstep>
  <scstep>
   <time name="diag">    1.37    1.37</time>
   <time name="diis">    5.20    5.17</time>
   <time name="orth">    0.04    0.04</time>
   <time name="total">    8.69    8.66</time>
   <energy>
    <i name="e_fr_energy">   -782.18524615 </i>
    <i name="e_wo_entrp">   -782.18524615 </i>
    <i name="e_0_energy">   -782.18524615 </i>
   </energy>
  </scstep>
  <scstep>
   <time name="diag">    1.37    1.37</time>
   <time name="diis">    4.35    4.32</time>
   <time name="orth">    0.04    0.04</time>
   <time name="total">    6.04    6.00</time>
   <energy>
    <i name="alphaZ">   1035.67788958 </i>
    <i name="ewald"> -10019.18099044 </i>
    <i name="hartreedc">  -1477.68731543 </i>
    <i name="XCdc">    932.37277091 </i>
    <i name="pawpsdc">  34027.20428140 </i>
    <i name="pawaedc"> -33964.65881923 </i>
    <i name="eentropy">      0.00000000 </i>
    <i name="bandstr">   -502.66801855 </i>
    <i name="atom">   9186.75495500 </i>
    <i name="e_fr_energy">   -782.18524677 </i>
    <i name="e_wo_entrp">   -782.18524677 </i>
    <i name="e_0_energy">   -782.18524677 </i>
   </energy>
  </scstep>
  <structure>
   <crystal>
    <varray name="basis" >
     <v>       9.40717676      -0.71847384       4.27846069 </v>
     <v>       3.45977452       8.75876116       4.32270686 </v>
     <v>       0.13011501       0.13203268      10.23298954 </v>
    </varray>
    <i name="volume">    859.89143700 </i>
    <varray name="rec_basis" >
     <v>       0.10356839      -0.04051836      -0.00079410 </v>
     <v>       0.00920701       0.11130108      -0.00155315 </v>
     <v>      -0.04719173      -0.03007584       0.09871127 </v>
    </varray>
   </crystal>
   <varray name="positions" >
    <v>       0.15573890       0.40250862       0.40634043 </v>
    <v>       0.15573890       0.40250862       0.90634043 </v>
    <v>       0.15573890       0.90250862       0.40634043 </v>
    <v>       0.15573890       0.90250862       0.90634043 </v>
    <v>       0.65573890       0.40250862       0.40634043 </v>
    <v>       0.65573890       0.40250862       0.90634043 </v>
    <v>       0.65573890       0.90250862       0.40634043 </v>
    <v>       0.65573890       0.90250862       0.90634043 </v>
    <v>       0.39815308       0.40239700       0.16385270 </v>
    <v>       0.39815308       0.40239700       0.66385270 </v>
    <v>       0.39815308       0.90239700       0.16385270 </v>
    <v>       0.39815308       0.90239700       0.66385270 </v>
    <v>       0.89815308       0.40239700       0.16385270 </v>
    <v>       0.89815308       0.40239700       0.66385270 </v>
    <v>       0.89815308       0.90239700       0.16385270 </v>
    <v>       0.89815308       0.90239700       0.66385270 </v>
    <v>       0.39690360       0.15890949       0.40323564 </v>
    <v>       0.39690360       0.15890949       0.90323564 </v>
    <v>       0.39690360       0.65890949       0.40323564 </v>
    <v>       0.39690360       0.65890949       0.90323564 </v>
    <v>       0.89690360       0.15890949       0.40323564 </v>
    <v>       0.89690360       0.15890949       0.90323564 </v>
    <v>       0.89690360       0.65890949       0.40323564 </v>
    <v>       0.89690360       0.65890949       0.90323564 </v>
    <v>       0.34426110       0.09749138       0.09365957 </v>
    <v>       0.34426110       0.09749138       0.59365957 </v>
    <v>       0.34426110       0.59749138       0.09365957 </v>
    <v>       0.34426110       0.59749138       0.59365957 </v>
    <v>       0.84426110       0.09749138       0.09365957 </v>
    <v>       0.84426110       0.09749138       0.59365957 </v>
    <v>       0.84426110       0.59749138       0.09365957 </v>
    <v>       0.84426110       0.59749138       0.59365957 </v>
    <v>       0.10184692       0.09760300       0.33614730 </v>
    <v>       0.10184692       0.09760300       0.83614730 </v>
    <v>       0.10184692       0.59760300       0.33614730 </v>
    <v>       0.10184692       0.59760300       0.83614730 </v>
    <v>       0.60184692       0.09760300       0.33614730 </v>
    <v>       0.60184692       0.09760300       0.83614730 </v>
    <v>       0.60184692       0.59760300       0.33614730 </v>
    <v>       0.60184692       0.59760300       0.83614730 </v>
    <v>       0.10309640       0.34109051       0.09676436 </v>
[...]
       <r>    -7.4940    10.1613    38.8547 </r>
       <r>    -7.4092     5.6013    39.5134 </r>
       <r>    -7.3243     2.4909    39.8465 </r>
       <r>    -7.2395     7.0768    40.0208 </r>
       <r>    -7.1546    30.4693    41.7711 </r>
       <r>    -7.0697     1.7184    43.9932 </r>
       <r>    -6.9849    32.5033    45.1766 </r>
       <r>    -6.9000    11.2541    47.0194 </r>
       <r>    -6.8152     5.0329    47.6917 </r>
       <r>    -6.7303     1.4598    47.9487 </r>
       <r>    -6.6454     0.0552    47.9996 </r>
       <r>    -6.5606     0.0000    48.0000 </r>
       <r>    -6.4757    16.9997    48.9040 </r>
       <r>    -6.3909    17.9947    50.4270 </r>
       <r>    -6.3060    18.1200    51.9818 </r>
       <r>    -6.2211    71.5624    54.2843 </r>
       <r>    -6.1363     7.8399    56.1526 </r>
       <r>    -6.0514    20.0568    57.5125 </r>
       <r>    -5.9666    21.4470    59.2946 </r>
       <r>    -5.8817    70.5190    62.2282 </r>
       <r>    -5.7968    17.3202    65.0870 </r>
       <r>    -5.7120    28.4317    67.1259 </r>
       <r>    -5.6271    21.2144    69.3670 </r>
       <r>    -5.5423    20.4596    70.8507 </r>
       <r>    -5.4574    29.6806    73.0404 </r>
       <r>    -5.3725    30.1835    75.6405 </r>
       <r>    -5.2877    25.8147    77.9511 </r>
       <r>    -5.2028    21.0189    79.4266 </r>
       <r>    -5.1180    18.0302    81.3401 </r>
       <r>    -5.0331     8.9425    81.9387 </r>
       <r>    -4.9482    16.5519    83.2127 </r>
       <r>    -4.8634     0.4961    83.9981 </r>
       <r>    -4.7785    16.1995    85.0302 </r>
       <r>    -4.6937    10.5313    85.8678 </r>
       <r>    -4.6088    38.5497    88.9474 </r>
       <r>    -4.5239    20.9104    91.0115 </r>
       <r>    -4.4391    17.0461    92.6217 </r>
       <r>    -4.3542    13.2188    93.9056 </r>
       <r>    -4.2694     9.4285    94.8663 </r>
       <r>    -4.1845     5.6752    95.5069 </r>
       <r>    -4.0996     2.2409    95.8325 </r>
       <r>    -4.0148     0.8660    95.9598 </r>
       <r>    -3.9299     0.1326    95.9976 </r>
       <r>    -3.8451     0.0000    96.0000 </r>
       <r>    -3.7602     0.3651    96.0099 </r>
       <r>    -3.6753     1.5173    96.0842 </r>
       <r>    -3.5905     5.2434    96.3463 </r>
       <r>    -3.5056    10.1606    96.9976 </r>
       <r>    -3.4208    15.3931    98.0797 </r>
       <r>    -3.3359    20.9409    99.6191 </r>
       <r>    -3.2510    32.9532   101.9268 </r>
       <r>    -3.1662    14.6150   104.0818 </r>
       <r>    -3.0813     8.1064   105.0877 </r>
       <r>    -2.9965     8.1213   105.7028 </r>
       <r>    -2.9116    29.2425   107.7791 </r>
       <r>    -2.8267    23.8220   109.5954 </r>
       <r>    -2.7419    24.2472   111.6545 </r>
       <r>    -2.6570    26.4796   113.7734 </r>
       <r>    -2.5722    26.1675   116.0861 </r>
       <r>    -2.4873    21.8029   118.1681 </r>
       <r>    -2.4024    10.5817   119.3550 </r>
       <r>    -2.3176    47.1778   121.6998 </r>
       <r>    -2.2327    23.0039   124.4749 </r>
       <r>    -2.1478    15.8228   126.1152 </r>
       <r>    -2.0630    34.9459   128.1764 </r>
       <r>    -1.9781    42.1037   131.8022 </r>
       <r>    -1.8933    53.2248   134.9152 </r>
       <r>    -1.8084    43.7630   139.6486 </r>
       <r>    -1.7235    43.4219   143.3166 </r>
       <r>    -1.6387    30.7008   146.8413 </r>
       <r>    -1.5538     5.1084   147.8550 </r>
       <r>    -1.4690    13.7350   148.4309 </r>
       <r>    -1.3841    36.9688   150.7509 </r>
       <r>    -1.2992    39.0156   154.0967 </r>
       <r>    -1.2144   246.9221   157.2957 </r>
       <r>    -1.1295    18.4272   159.6082 </r>
       <r>    -1.0447    17.7275   161.1419 </r>
       <r>    -0.9598    42.4960   162.9445 </r>
       <r>    -0.8749    49.1802   167.0584 </r>
       <r>    -0.7901    42.3827   170.9448 </r>
       <r>    -0.7052    34.1988   174.2218 </r>
       <r>    -0.6204    37.7005   178.5340 </r>
       <r>    -0.5355     8.3932   179.7862 </r>
       <r>    -0.4506     6.3278   180.3296 </r>
       <r>    -0.3658    12.1672   181.1195 </r>
       <r>    -0.2809    15.5154   182.3049 </r>
       <r>    -0.1961    17.7936   183.7178 </r>
       <r>    -0.1112    19.5809   185.3094 </r>
       <r>    -0.0263    20.5520   187.0180 </r>
       <r>     0.0585    19.7705   188.9387 </r>
       <r>     0.1434    12.1040   189.7853 </r>
       <r>     0.2282    17.0397   191.0160 </r>
       <r>     0.3131    29.1652   193.4688 </r>
       <r>     0.3980    38.2057   195.9720 </r>
       <r>     0.4828    70.1713   201.5230 </r>
       <r>     0.5677    81.1883   208.3675 </r>
       <r>     0.6525    32.1829   211.9498 </r>
       <r>     0.7374    36.8392   214.6865 </r>
       <r>     0.8223    30.0740   217.0846 </r>
       <r>     0.9071    28.1600   219.5964 </r>
       <r>     0.9920    27.6439   221.8245 </r>
       <r>     1.0768    28.0608   225.1352 </r>
       <r>     1.1617    49.7010   228.6631 </r>
       <r>     1.2466    51.5407   234.6484 </r>
       <r>     1.3314    33.0833   236.3485 </r>
       <r>     1.4163    88.0931   243.8492 </r>
       <r>     1.5011    37.8192   250.2633 </r>
       <r>     1.5860    24.7929   252.6972 </r>
       <r>     1.6709    21.1511   254.6112 </r>
       <r>     1.7557    18.7864   256.3082 </r>
       <r>     1.8406    16.0602   257.7897 </r>
       <r>     1.9254    12.4928   259.0089 </r>
       <r>     2.0103     5.8823   259.8068 </r>
       <r>     2.0952    29.1878   260.8196 </r>
       <r>     2.1800   100.3835   267.6875 </r>
       <r>     2.2649   117.2921   277.1708 </r>
       <r>     2.3497    96.4906   284.7995 </r>
       <r>     2.4346    57.7876   288.5866 </r>
       <r>     2.5195    43.8662   293.3876 </r>
       <r>     2.6043    50.7469   296.1140 </r>
       <r>     2.6892    17.1608   298.7395 </r>
       <r>     2.7740    61.1926   302.2433 </r>
       <r>     2.8589    64.9269   307.8168 </r>
       <r>     2.9438    75.4260   315.5769 </r>
       <r>     3.0286    52.9839   319.4415 </r>
       <r>     3.1135    41.5189   323.5510 </r>
       <r>     3.1984    23.4398   326.3095 </r>
       <r>     3.2832    46.7143   330.3952 </r>
       <r>     3.3681     6.0973   331.8464 </r>
       <r>     3.4529     2.6114   332.0293 </r>
       <r>     3.5378    23.4233   333.0361 </r>
       <r>     3.6227    54.5293   336.2158 </r>
       <r>     3.7075    20.6039   341.1045 </r>
       <r>     3.7924    29.7744   342.8825 </r>
       <r>     3.8772    31.4534   345.5753 </r>
       <r>     3.9621    19.7122   347.8412 </r>
       <r>     4.0470    13.9416   349.1844 </r>
       <r>     4.1318    33.7345   351.1080 </r>
       <r>     4.2167     2.0530   352.3066 </r>
       <r>     4.3015     2.9432   352.5171 </r>
       <r>     4.3864     4.0531   352.8124 </r>
       <r>     4.4713     5.3827   353.2112 </r>
       <r>     4.5561     6.9321   353.7321 </r>
       <r>     4.6410    15.0071   354.8881 </r>
       <r>     4.7258     6.6339   355.8419 </r>
       <r>     4.8107     0.0000   356.0000 </r>
       <r>     4.8956     0.0000   356.0000 </r>
       <r>     4.9804     0.0000   356.0000 </r>
       <r>     5.0653     3.3427   356.0216 </r>
       <r>     5.1501    66.9447   359.0374 </r>
       <r>     5.2350    31.1793   362.1996 </r>
       <r>     5.3199    35.8253   365.1826 </r>
       <r>     5.4047    11.7841   368.0000 </r>
       <r>     5.4896     0.0000   368.0000 </r>
       <r>     5.5744     0.2869   368.0039 </r>
       <r>     5.6593     2.8251   368.1141 </r>
       <r>     5.7442    10.0973   368.6879 </r>
       <r>     5.8290    13.7641   369.7258 </r>
       <r>     5.9139    13.8253   370.9219 </r>
       <r>     5.9987    10.2809   371.9703 </r>
       <r>     6.0836    26.8420   373.9612 </r>
       <r>     6.1685    20.3548   375.4699 </r>
       <r>     6.2533    21.1556   377.2685 </r>
       <r>     6.3382    23.1291   378.9102 </r>
       <r>     6.4230    13.0388   382.0219 </r>
       <r>     6.5079     7.8448   382.8867 </r>
       <r>     6.5928     4.9984   383.4243 </r>
       <r>     6.6776     2.8448   383.7528 </r>
       <r>     6.7625     1.2942   383.9242 </r>
       <r>     6.8473     0.3464   383.9895 </r>
       <r>     6.9322     0.0016   384.0000 </r>
       <r>     7.0171     0.0000   384.0000 </r>
       <r>     7.1019     0.0000   384.0000 </r>
       <r>     7.1868     0.0000   384.0000 </r>
       <r>     7.2716     0.0000   384.0000 </r>
       <r>     7.3565     0.0000   384.0000 </r>
       <r>     7.4414     0.0000   384.0000 </r>
       <r>     7.5262     0.0000   384.0000 </r>
       <r>     7.6111     0.0000   384.0000 </r>
       <r>     7.6959     0.0000   384.0000 </r>
       <r>     7.7808     0.0000   384.0000 </r>
       <r>     7.8657     0.0000   384.0000 </r>
       <r>     7.9505     0.0000   384.0000 </r>
       <r>     8.0354     0.0111   384.0001 </r>
       <r>     8.1202     0.3754   384.0128 </r>
       <r>     8.2051     1.2549   384.0784 </r>
       <r>     8.2900     2.6496   384.2404 </r>
       <r>     8.3748     4.5595   384.5426 </r>
       <r>     8.4597     6.9847   385.0288 </r>
       <r>     8.5446    13.3106   385.9271 </r>
       <r>     8.6294    10.1151   386.9953 </r>
       <r>     8.7143     6.6278   387.6268 </r>
       <r>     8.7991    20.4692   388.6332 </r>
       <r>     8.8840    27.6118   390.7788 </r>
       <r>     8.9689    23.6226   392.9872 </r>
       <r>     9.0537    18.1290   394.7201 </r>
       <r>     9.1386    21.6917   396.3989 </r>
       <r>     9.2234    18.5096   398.1462 </r>
       <r>     9.3083    11.0099   399.3907 </r>
       <r>     9.3932    10.9472   400.2805 </r>
       <r>     9.4780    16.8019   401.4161 </r>
       <r>     9.5629    29.0972   403.3031 </r>
       <r>     9.6477    59.3056   408.6265 </r>
       <r>     9.7326    12.6093   409.7689 </r>
       <r>     9.8175    15.4254   410.9620 </r>
       <r>     9.9023    16.6084   412.3419 </r>
       <r>     9.9872    14.8430   413.6973 </r>
       <r>    10.0720    32.5533   415.3253 </r>
       <r>    10.1569    29.8273   416.8983 </r>
       <r>    10.2418    66.1164   422.0685 </r>
       <r>    10.3266    23.5022   424.8958 </r>
       <r>    10.4115    37.0476   427.9893 </r>
       <r>    10.4963    23.3582   429.8742 </r>
       <r>    10.5812     7.4161   432.5843 </r>
       <r>    10.6661     8.4809   433.1950 </r>
       <r>    10.7509    11.6208   434.0436 </r>
       <r>    10.8358    13.5089   435.1148 </r>
       <r>    10.9206    14.9739   436.3259 </r>
       <r>    11.0055    16.0775   437.6459 </r>
       <r>    11.0904    16.8198   439.0443 </r>
       <r>    11.1752    17.2008   440.4904 </r>
       <r>    11.2601    17.2204   441.9534 </r>
       <r>    11.3449    16.8788   443.4028 </r>
       <r>    11.4298    13.8625   444.7796 </r>
       <r>    11.5147    24.6519   446.8013 </r>
       <r>    11.5995    49.0398   449.8981 </r>
       <r>    11.6844    22.6008   451.9523 </r>
       <r>    11.7692    20.5342   453.7531 </r>
       <r>    11.8541    21.2718   455.5152 </r>
       <r>    11.9390    21.4472   457.3449 </r>
       <r>    12.0238    11.1399   458.5766 </r>
       <r>    12.1087     9.6767   459.4740 </r>
       <r>    12.1935    45.1285   461.3189 </r>
       <r>    12.2784     9.8277   464.0313 </r>
       <r>    12.3633    17.6459   465.7359 </r>
       <r>    12.4481     0.0000   466.0000 </r>
       <r>    12.5330     0.0000   466.0000 </r>
       <r>    12.6178     0.0000   466.0000 </r>
       <r>    12.7027     0.0000   466.0000 </r>
       <r>    12.7876     0.0000   466.0000 </r>
       <r>    12.8724     0.0000   466.0000 </r>
       <r>    12.9573     0.0000   466.0000 </r>
       <r>    13.0421     0.0000   466.0000 </r>
       <r>    13.1270     0.0000   466.0000 </r>
       <r>    13.2119     0.0000   466.0000 </r>
       <r>    13.2967     0.0000   466.0000 </r>
       <r>    13.3816     0.0000   466.0000 </r>
       <r>    13.4664     0.0000   466.0000 </r>
       <r>    13.5513     0.0000   466.0000 </r>
      </set>
     </set>
    </array>
   </total>
  </dos>
 </calculation>
 <structure name="finalpos" >
  <crystal>
   <varray name="basis" >
    <v>       9.36043377      -0.67326992       4.29625205 </v>
    <v>       3.49996119       8.71328943       4.29788029 </v>
    <v>       0.10693060       0.07059228      10.31955933 </v>
   </varray>
   <i name="volume">    859.89143700 </i>
   <varray name="rec_basis" >
    <v>       0.10421538      -0.04146859      -0.00079620 </v>
    <v>       0.00843261       0.11180034      -0.00085216 </v>
    <v>      -0.04689908      -0.02929824       0.09758975 </v>
   </varray>
  </crystal>
  <varray name="positions" >
   <v>       0.16018287       0.40037347       0.40035808 </v>
   <v>       0.16018287       0.40037347       0.90035808 </v>
   <v>       0.16018287       0.90037347       0.40035808 </v>
   <v>       0.16018287       0.90037347       0.90035808 </v>
   <v>       0.66018287       0.40037347       0.40035808 </v>
   <v>       0.66018287       0.40037347       0.90035808 </v>
   <v>       0.66018287       0.90037347       0.40035808 </v>
   <v>       0.66018287       0.90037347       0.90035808 </v>
   <v>       0.40037105       0.40037783       0.16022834 </v>
   <v>       0.40037105       0.40037783       0.66022834 </v>
   <v>       0.40037105       0.90037783       0.16022834 </v>
   <v>       0.40037105       0.90037783       0.66022834 </v>
   <v>       0.90037105       0.40037783       0.16022834 </v>
   <v>       0.90037105       0.40037783       0.66022834 </v>
   <v>       0.90037105       0.90037783       0.16022834 </v>
   <v>       0.90037105       0.90037783       0.66022834 </v>
   <v>       0.40034316       0.16013182       0.40034096 </v>
   <v>       0.40034316       0.16013182       0.90034096 </v>
   <v>       0.40034316       0.66013182       0.40034096 </v>
   <v>       0.40034316       0.66013182       0.90034096 </v>
   <v>       0.90034316       0.16013182       0.40034096 </v>
   <v>       0.90034316       0.16013182       0.90034096 </v>
   <v>       0.90034316       0.66013182       0.40034096 </v>
   <v>       0.90034316       0.66013182       0.90034096 </v>
   <v>       0.33981713       0.09962653       0.09964192 </v>
   <v>       0.33981713       0.09962653       0.59964192 </v>
   <v>       0.33981713       0.59962653       0.09964192 </v>
   <v>       0.33981713       0.59962653       0.59964192 </v>
   <v>       0.83981713       0.09962653       0.09964192 </v>
   <v>       0.83981713       0.09962653       0.59964192 </v>
   <v>       0.83981713       0.59962653       0.09964192 </v>
   <v>       0.83981713       0.59962653       0.59964192 </v>
   <v>       0.09962895       0.09962217       0.33977166 </v>
   <v>       0.09962895       0.09962217       0.83977166 </v>
   <v>       0.09962895       0.59962217       0.33977166 </v>
   <v>       0.09962895       0.59962217       0.83977166 </v>
   <v>       0.59962895       0.09962217       0.33977166 </v>
   <v>       0.59962895       0.09962217       0.83977166 </v>
   <v>       0.59962895       0.59962217       0.33977166 </v>
   <v>       0.59962895       0.59962217       0.83977166 </v>
   <v>       0.09965684       0.33986818       0.09965904 </v>
   <v>       0.09965684       0.33986818       0.59965904 </v>
   <v>       0.09965684       0.83986818       0.09965904 </v>
   <v>       0.09965684       0.83986818       0.59965904 </v>
   <v>       0.59965684       0.33986818       0.09965904 </v>
   <v>       0.59965684       0.33986818       0.59965904 </v>
   <v>       0.59965684       0.83986818       0.09965904 </v>
   <v>       0.59965684       0.83986818       0.59965904 </v>
   <v>       0.33214005       0.00025131       0.00027382 </v>
   <v>       0.33214005       0.00025131       0.50027382 </v>
   <v>       0.33214005       0.50025131       0.00027382 </v>
   <v>       0.33214005       0.50025131       0.50027382 </v>
   <v>       0.83214005       0.00025131       0.00027382 </v>
   <v>       0.83214005       0.00025131       0.50027382 </v>
   <v>       0.83214005       0.50025131       0.00027382 </v>
   <v>       0.83214005       0.50025131       0.50027382 </v>
   <v>       0.00022130       0.00023056       0.33218761 </v>
   <v>       0.00022130       0.00023056       0.83218761 </v>
   <v>       0.00022130       0.50023056       0.33218761 </v>
   <v>       0.00022130       0.50023056       0.83218761 </v>
   <v>       0.50022130       0.00023056       0.33218761 </v>
   <v>       0.50022130       0.00023056       0.83218761 </v>
   <v>       0.50022130       0.50023056       0.33218761 </v>
   <v>       0.50022130       0.50023056       0.83218761 </v>
   <v>       0.00029529       0.33202875       0.00033806 </v>
   <v>       0.00029529       0.33202875       0.50033806 </v>
   <v>       0.00029529       0.83202875       0.00033806 </v>
   <v>       0.00029529       0.83202875       0.50033806 </v>
   <v>       0.50029529       0.33202875       0.00033806 </v>
   <v>       0.50029529       0.33202875       0.50033806 </v>
   <v>       0.50029529       0.83202875       0.00033806 </v>
   <v>       0.50029529       0.83202875       0.50033806 </v>
   <v>       0.16785995       0.99974869      -0.00027382 </v>
   <v>       0.16785995       0.99974869       0.49972618 </v>
   <v>       0.16785995       0.49974869      -0.00027382 </v>
   <v>       0.16785995       0.49974869       0.49972618 </v>
   <v>       0.66785995       0.99974869      -0.00027382 </v>
   <v>       0.66785995       0.99974869       0.49972618 </v>
   <v>       0.66785995       0.49974869      -0.00027382 </v>
   <v>       0.66785995       0.49974869       0.49972618 </v>
   <v>      -0.00022130      -0.00023056       0.16781239 </v>
   <v>      -0.00022130      -0.00023056       0.66781239 </v>
   <v>      -0.00022130       0.49976944       0.16781239 </v>
   <v>      -0.00022130       0.49976944       0.66781239 </v>
   <v>       0.49977870      -0.00023056       0.16781239 </v>
   <v>       0.49977870      -0.00023056       0.66781239 </v>
   <v>       0.49977870       0.49976944       0.16781239 </v>
   <v>       0.49977870       0.49976944       0.66781239 </v>
   <v>       0.99970471       0.16797125      -0.00033806 </v>
   <v>       0.99970471       0.16797125       0.49966194 </v>
   <v>       0.99970471       0.66797125      -0.00033806 </v>
   <v>       0.99970471       0.66797125       0.49966194 </v>
   <v>       0.49970471       0.16797125      -0.00033806 </v>
   <v>       0.49970471       0.16797125       0.49966194 </v>
   <v>       0.49970471       0.66797125      -0.00033806 </v>
   <v>       0.49970471       0.66797125       0.49966194 </v>
   <v>       0.31515655       0.31514723       0.31516384 </v>
   <v>       0.31515655       0.31514723       0.81516384 </v>
   <v>       0.31515655       0.81514723       0.31516384 </v>
   <v>       0.31515655       0.81514723       0.81516384 </v>
   <v>       0.81515655       0.31514723       0.31516384 </v>
   <v>       0.81515655       0.31514723       0.81516384 </v>
   <v>       0.81515655       0.81514723       0.31516384 </v>
   <v>       0.81515655       0.81514723       0.81516384 </v>
   <v>       0.18484345       0.18485277       0.18483616 </v>
   <v>       0.18484345       0.18485277       0.68483616 </v>
   <v>       0.18484345       0.68485277       0.18483616 </v>
   <v>       0.18484345       0.68485277       0.68483616 </v>
   <v>       0.68484345       0.18485277       0.18483616 </v>
   <v>       0.68484345       0.18485277       0.68483616 </v>
   <v>       0.68484345       0.68485277       0.18483616 </v>
   <v>       0.68484345       0.68485277       0.68483616 </v>
  </varray>
 </structure>
</modeling>
