unknown system                          
            1
     9.436576    0.071636    4.306976
     4.236137    8.885026    4.306977
     0.109355    0.071636   10.361971
   B    C 
    96    16
unknown system                          
            1
     9.436576    0.071636    4.306976
     4.236137    8.885026    4.306977
     0.109355    0.071636   10.361971
   B    C 
    96    16
Direct configuration=     1
   0.16039500  0.40051500  0.40051500
   0.16039500  0.40051500  0.90051500
   0.16039500  0.90051500  0.40051500
   0.16039500  0.90051500  0.90051500
   0.66039500  0.40051500  0.40051500
   0.66039500  0.40051500  0.90051500
   0.66039500  0.90051500  0.40051500
   0.66039500  0.90051500  0.90051500
   0.40051500  0.40051500  0.16039500
   0.40051500  0.40051500  0.66039500
   0.40051500  0.90051500  0.16039500
   0.40051500  0.90051500  0.66039500
   0.90051500  0.40051500  0.16039500
   0.90051500  0.40051500  0.66039500
   0.90051500  0.90051500  0.16039500
   0.90051500  0.90051500  0.66039500
   0.40051500  0.16039500  0.40051500
   0.40051500  0.16039500  0.90051500
   0.40051500  0.66039500  0.40051500
   0.40051500  0.66039500  0.90051500
   0.90051500  0.16039500  0.40051500
   0.90051500  0.16039500  0.90051500
   0.90051500  0.66039500  0.40051500
   0.90051500  0.66039500  0.90051500
   0.33960500  0.09948500  0.09948500
   0.33960500  0.09948500  0.59948500
   0.33960500  0.59948500  0.09948500
   0.33960500  0.59948500  0.59948500
   0.83960500  0.09948500  0.09948500
   0.83960500  0.09948500  0.59948500
   0.83960500  0.59948500  0.09948500
   0.83960500  0.59948500  0.59948500
   0.09948500  0.09948500  0.33960500
   0.09948500  0.09948500  0.83960500
   0.09948500  0.59948500  0.33960500
   0.09948500  0.59948500  0.83960500
   0.59948500  0.09948500  0.33960500
   0.59948500  0.09948500  0.83960500
   0.59948500  0.59948500  0.33960500
   0.59948500  0.59948500  0.83960500
   0.09948500  0.33960500  0.09948500
   0.09948500  0.33960500  0.59948500
   0.09948500  0.83960500  0.09948500
   0.09948500  0.83960500  0.59948500
   0.59948500  0.33960500  0.09948500
   0.59948500  0.33960500  0.59948500
   0.59948500  0.83960500  0.09948500
   0.59948500  0.83960500  0.59948500
   0.33229300  0.00011500  0.00011500
   0.33229300  0.00011500  0.50011500
   0.33229300  0.50011500  0.00011500
   0.33229300  0.50011500  0.50011500
   0.83229300  0.00011500  0.00011500
   0.83229300  0.00011500  0.50011500
   0.83229300  0.50011500  0.00011500
   0.83229300  0.50011500  0.50011500
   0.00011500  0.00011500  0.33229300
   0.00011500  0.00011500  0.83229300
   0.00011500  0.50011500  0.33229300
   0.00011500  0.50011500  0.83229300
   0.50011500  0.00011500  0.33229300
   0.50011500  0.00011500  0.83229300
   0.50011500  0.50011500  0.33229300
   0.50011500  0.50011500  0.83229300
   0.00011500  0.33229300  0.00011500
   0.00011500  0.33229300  0.50011500
   0.00011500  0.83229300  0.00011500
   0.00011500  0.83229300  0.50011500
   0.50011500  0.33229300  0.00011500
   0.50011500  0.33229300  0.50011500
   0.50011500  0.83229300  0.00011500
   0.50011500  0.83229300  0.50011500
   0.16770700  0.99988500  0.99988500
   0.16770700  0.99988500  0.49988500
   0.16770700  0.49988500  0.99988500
   0.16770700  0.49988500  0.49988500
   0.66770700  0.99988500  0.99988500
   0.66770700  0.99988500  0.49988500
   0.66770700  0.49988500  0.99988500
   0.66770700  0.49988500  0.49988500
   0.99988500  0.99988500  0.16770700
   0.99988500  0.99988500  0.66770700
   0.99988500  0.49988500  0.16770700
   0.99988500  0.49988500  0.66770700
   0.49988500  0.99988500  0.16770700
   0.49988500  0.99988500  0.66770700
   0.49988500  0.49988500  0.16770700
   0.49988500  0.49988500  0.66770700
   0.99988500  0.16770700  0.99988500
   0.99988500  0.16770700  0.49988500
   0.99988500  0.66770700  0.99988500
   0.99988500  0.66770700  0.49988500
   0.49988500  0.16770700  0.99988500
   0.49988500  0.16770700  0.49988500
   0.49988500  0.66770700  0.99988500
   0.49988500  0.66770700  0.49988500
   0.31539700  0.31539700  0.31539700
   0.31539700  0.31539700  0.81539700
   0.31539700  0.81539700  0.31539700
   0.31539700  0.81539700  0.81539700
   0.81539700  0.31539700  0.31539700
   0.81539700  0.31539700  0.81539700
   0.81539700  0.81539700  0.31539700
   0.81539700  0.81539700  0.81539700
   0.18460300  0.18460300  0.18460300
   0.18460300  0.18460300  0.68460300
   0.18460300  0.68460300  0.18460300
   0.18460300  0.68460300  0.68460300
   0.68460300  0.18460300  0.18460300
   0.68460300  0.18460300  0.68460300
   0.68460300  0.68460300  0.18460300
   0.68460300  0.68460300  0.68460300
unknown system                          
            1
     9.407177   -0.718474    4.278461
     3.459775    8.758761    4.322707
     0.130115    0.132033   10.232990
   B    C 
    96    16
Direct configuration=     2
   0.15573890  0.40250862  0.40634043
   0.15573890  0.40250862  0.90634043
   0.15573890  0.90250862  0.40634043
   0.15573890  0.90250862  0.90634043
   0.65573890  0.40250862  0.40634043
   0.65573890  0.40250862  0.90634043
   0.65573890  0.90250862  0.40634043
   0.65573890  0.90250862  0.90634043
   0.39815308  0.40239700  0.16385270
   0.39815308  0.40239700  0.66385270
   0.39815308  0.90239700  0.16385270
   0.39815308  0.90239700  0.66385270
   0.89815308  0.40239700  0.16385270
   0.89815308  0.40239700  0.66385270
   0.89815308  0.90239700  0.16385270
   0.89815308  0.90239700  0.66385270
   0.39690360  0.15890949  0.40323564
   0.39690360  0.15890949  0.90323564
   0.39690360  0.65890949  0.40323564
   0.39690360  0.65890949  0.90323564
   0.89690360  0.15890949  0.40323564
   0.89690360  0.15890949  0.90323564
   0.89690360  0.65890949  0.40323564
   0.89690360  0.65890949  0.90323564
   0.34426110  0.09749138  0.09365957
   0.34426110  0.09749138  0.59365957
   0.34426110  0.59749138  0.09365957
   0.34426110  0.59749138  0.59365957
   0.84426110  0.09749138  0.09365957
   0.84426110  0.09749138  0.59365957
   0.84426110  0.59749138  0.09365957
   0.84426110  0.59749138  0.59365957
   0.10184692  0.09760300  0.33614730
   0.10184692  0.09760300  0.83614730
   0.10184692  0.59760300  0.33614730
   0.10184692  0.59760300  0.83614730
   0.60184692  0.09760300  0.33614730
   0.60184692  0.09760300  0.83614730
   0.60184692  0.59760300  0.33614730
   0.60184692  0.59760300  0.83614730
   0.10309640  0.34109051  0.09676436
   0.10309640  0.34109051  0.59676436
   0.10309640  0.84109051  0.09676436
   0.10309640  0.84109051  0.59676436
   0.60309640  0.34109051  0.09676436
   0.60309640  0.34109051  0.59676436
   0.60309640  0.84109051  0.09676436
   0.60309640  0.84109051  0.59676436
   0.32861746  0.00450816 -0.00073984
   0.32861746  0.00450816  0.49926016
   0.32861746  0.50450816 -0.00073984
   0.32861746  0.50450816  0.49926016
   0.82861746  0.00450816 -0.00073984
   0.82861746  0.00450816  0.49926016
   0.82861746  0.50450816 -0.00073984
   0.82861746  0.50450816  0.49926016
  -0.00153551  0.00060393  0.33048749
  -0.00153551  0.00060393  0.83048749
  -0.00153551  0.50060393  0.33048749
  -0.00153551  0.50060393  0.83048749
   0.49846449  0.00060393  0.33048749
   0.49846449  0.00060393  0.83048749
   0.49846449  0.50060393  0.33048749
   0.49846449  0.50060393  0.83048749
   0.00450071  0.32853577 -0.00132216
   0.00450071  0.32853577  0.49867784
   0.00450071  0.82853577 -0.00132216
   0.00450071  0.82853577  0.49867784
   0.50450071  0.32853577 -0.00132216
   0.50450071  0.32853577  0.49867784
   0.50450071  0.82853577 -0.00132216
   0.50450071  0.82853577  0.49867784
   0.17138254  0.99549184  0.00073984
   0.17138254  0.99549184  0.50073984
   0.17138254  0.49549184  0.00073984
   0.17138254  0.49549184  0.50073984
   0.67138254  0.99549184  0.00073984
   0.67138254  0.99549184  0.50073984
   0.67138254  0.49549184  0.00073984
   0.67138254  0.49549184  0.50073984
   0.00153551  0.99939607  0.16951251
   0.00153551  0.99939607  0.66951251
   0.00153551  0.49939607  0.16951251
   0.00153551  0.49939607  0.66951251
   0.50153551  0.99939607  0.16951251
   0.50153551  0.99939607  0.66951251
   0.50153551  0.49939607  0.16951251
   0.50153551  0.49939607  0.66951251
   0.99549929  0.17146423  0.00132216
   0.99549929  0.17146423  0.50132216
   0.99549929  0.67146423  0.00132216
   0.99549929  0.67146423  0.50132216
   0.49549929  0.17146423  0.00132216
   0.49549929  0.17146423  0.50132216
   0.49549929  0.67146423  0.00132216
   0.49549929  0.67146423  0.50132216
   0.32546333  0.31781979  0.30233474
   0.32546333  0.31781979  0.80233474
   0.32546333  0.81781979  0.30233474
   0.32546333  0.81781979  0.80233474
   0.82546333  0.31781979  0.30233474
   0.82546333  0.31781979  0.80233474
   0.82546333  0.81781979  0.30233474
   0.82546333  0.81781979  0.80233474
   0.17453667  0.18218021  0.19766526
   0.17453667  0.18218021  0.69766526
   0.17453667  0.68218021  0.19766526
   0.17453667  0.68218021  0.69766526
   0.67453667  0.18218021  0.19766526
   0.67453667  0.18218021  0.69766526
   0.67453667  0.68218021  0.19766526
   0.67453667  0.68218021  0.69766526
unknown system                          
            1
     9.414040   -0.371870    4.288217
     3.797684    8.808476    4.313051
     0.120937    0.105489   10.282951
   B    C 
    96    16
Direct configuration=     3
   0.15765173  0.40181526  0.40374197
   0.15765173  0.40181526  0.90374197
   0.15765173  0.90181526  0.40374197
   0.15765173  0.90181526  0.90374197
   0.65765173  0.40181526  0.40374197
   0.65765173  0.40181526  0.90374197
   0.65765173  0.90181526  0.40374197
   0.65765173  0.90181526  0.90374197
   0.39909467  0.40165762  0.16232715
   0.39909467  0.40165762  0.66232715
   0.39909467  0.90165762  0.16232715
   0.39909467  0.90165762  0.66232715
   0.89909467  0.40165762  0.16232715
   0.89909467  0.40165762  0.66232715
   0.89909467  0.90165762  0.16232715
   0.89909467  0.90165762  0.66232715
   0.39848733  0.15972140  0.40196362
   0.39848733  0.15972140  0.90196362
   0.39848733  0.65972140  0.40196362
   0.39848733  0.65972140  0.90196362
   0.89848733  0.15972140  0.40196362
   0.89848733  0.15972140  0.90196362
   0.89848733  0.65972140  0.40196362
   0.89848733  0.65972140  0.90196362
   0.34234827  0.09818474  0.09625803
   0.34234827  0.09818474  0.59625803
   0.34234827  0.59818474  0.09625803
   0.34234827  0.59818474  0.59625803
   0.84234827  0.09818474  0.09625803
   0.84234827  0.09818474  0.59625803
   0.84234827  0.59818474  0.09625803
   0.84234827  0.59818474  0.59625803
   0.10090533  0.09834238  0.33767285
   0.10090533  0.09834238  0.83767285
   0.10090533  0.59834238  0.33767285
   0.10090533  0.59834238  0.83767285
   0.60090533  0.09834238  0.33767285
   0.60090533  0.09834238  0.83767285
   0.60090533  0.59834238  0.33767285
   0.60090533  0.59834238  0.83767285
   0.10151267  0.34027860  0.09803638
   0.10151267  0.34027860  0.59803638
   0.10151267  0.84027860  0.09803638
   0.10151267  0.84027860  0.59803638
   0.60151267  0.34027860  0.09803638
   0.60151267  0.34027860  0.59803638
   0.60151267  0.84027860  0.09803638
   0.60151267  0.84027860  0.59803638
   0.33003498  0.00268350 -0.00031503
   0.33003498  0.00268350  0.49968497
   0.33003498  0.50268350 -0.00031503
   0.33003498  0.50268350  0.49968497
   0.83003498  0.00268350 -0.00031503
   0.83003498  0.00268350  0.49968497
   0.83003498  0.50268350 -0.00031503
   0.83003498  0.50268350  0.49968497
  -0.00084994  0.00044344  0.33128294
  -0.00084994  0.00044344  0.83128294
  -0.00084994  0.50044344  0.33128294
  -0.00084994  0.50044344  0.83128294
   0.49915006  0.00044344  0.33128294
   0.49915006  0.00044344  0.83128294
   0.49915006  0.50044344  0.33128294
   0.49915006  0.50044344  0.83128294
   0.00276057  0.33004161 -0.00070947
   0.00276057  0.33004161  0.49929053
   0.00276057  0.83004161 -0.00070947
   0.00276057  0.83004161  0.49929053
   0.50276057  0.33004161 -0.00070947
   0.50276057  0.33004161  0.49929053
   0.50276057  0.83004161 -0.00070947
   0.50276057  0.83004161  0.49929053
   0.16996502  0.99731650  0.00031503
   0.16996502  0.99731650  0.50031503
   0.16996502  0.49731650  0.00031503
   0.16996502  0.49731650  0.50031503
   0.66996502  0.99731650  0.00031503
   0.66996502  0.99731650  0.50031503
   0.66996502  0.49731650  0.00031503
   0.66996502  0.49731650  0.50031503
   0.00084994  0.99955656  0.16871706
   0.00084994  0.99955656  0.66871706
   0.00084994  0.49955656  0.16871706
   0.00084994  0.49955656  0.66871706
   0.50084994  0.99955656  0.16871706
   0.50084994  0.99955656  0.66871706
   0.50084994  0.49955656  0.16871706
   0.50084994  0.49955656  0.66871706
   0.99723943  0.16995839  0.00070947
   0.99723943  0.16995839  0.50070947
   0.99723943  0.66995839  0.00070947
   0.99723943  0.66995839  0.50070947
   0.49723943  0.16995839  0.00070947
   0.49723943  0.16995839  0.50070947
   0.49723943  0.66995839  0.00070947
   0.49723943  0.66995839  0.50070947
   0.32110596  0.31630757  0.30828426
   0.32110596  0.31630757  0.80828426
   0.32110596  0.81630757  0.30828426
   0.32110596  0.81630757  0.80828426
   0.82110596  0.31630757  0.30828426
   0.82110596  0.31630757  0.80828426
   0.82110596  0.81630757  0.30828426
   0.82110596  0.81630757  0.80828426
   0.17889404  0.18369243  0.19171574
   0.17889404  0.18369243  0.69171574
   0.17889404  0.68369243  0.19171574
   0.17889404  0.68369243  0.69171574
   0.67889404  0.18369243  0.19171574
   0.67889404  0.18369243  0.69171574
   0.67889404  0.68369243  0.19171574
   0.67889404  0.68369243  0.69171574
unknown system                          
            1
     9.359554   -0.772798    4.276991
     3.399070    8.740530    4.299151
     0.110571    0.095488   10.266524
   B    C 
    96    16
Direct configuration=     4
   0.16460852  0.39793987  0.39921890
   0.16460852  0.39793987  0.89921890
   0.16460852  0.89793987  0.39921890
   0.16460852  0.89793987  0.89921890
   0.66460852  0.39793987  0.39921890
   0.66460852  0.39793987  0.89921890
   0.66460852  0.89793987  0.39921890
   0.66460852  0.89793987  0.89921890
   0.40387037  0.40556229  0.15548520
   0.40387037  0.40556229  0.65548520
   0.40387037  0.90556229  0.15548520
   0.40387037  0.90556229  0.65548520
   0.90387037  0.40556229  0.15548520
   0.90387037  0.40556229  0.65548520
   0.90387037  0.90556229  0.15548520
   0.90387037  0.90556229  0.65548520
   0.39761019  0.16045366  0.39985866
   0.39761019  0.16045366  0.89985866
   0.39761019  0.66045366  0.39985866
   0.39761019  0.66045366  0.89985866
   0.89761019  0.16045366  0.39985866
   0.89761019  0.16045366  0.89985866
   0.89761019  0.66045366  0.39985866
   0.89761019  0.66045366  0.89985866
   0.33539148  0.10206013  0.10078110
   0.33539148  0.10206013  0.60078110
   0.33539148  0.60206013  0.10078110
   0.33539148  0.60206013  0.60078110
   0.83539148  0.10206013  0.10078110
   0.83539148  0.10206013  0.60078110
   0.83539148  0.60206013  0.10078110
   0.83539148  0.60206013  0.60078110
   0.09612963  0.09443771  0.34451480
   0.09612963  0.09443771  0.84451480
   0.09612963  0.59443771  0.34451480
   0.09612963  0.59443771  0.84451480
   0.59612963  0.09443771  0.34451480
   0.59612963  0.09443771  0.84451480
   0.59612963  0.59443771  0.34451480
   0.59612963  0.59443771  0.84451480
   0.10238981  0.33954634  0.10014134
   0.10238981  0.33954634  0.60014134
   0.10238981  0.83954634  0.10014134
   0.10238981  0.83954634  0.60014134
   0.60238981  0.33954634  0.10014134
   0.60238981  0.33954634  0.60014134
   0.60238981  0.83954634  0.10014134
   0.60238981  0.83954634  0.60014134
   0.33145828  0.00338165 -0.00095634
   0.33145828  0.00338165  0.49904366
   0.33145828  0.50338165 -0.00095634
   0.33145828  0.50338165  0.49904366
   0.83145828  0.00338165 -0.00095634
   0.83145828  0.00338165  0.49904366
   0.83145828  0.50338165 -0.00095634
   0.83145828  0.50338165  0.49904366
  -0.00065155  0.00022793  0.33258289
  -0.00065155  0.00022793  0.83258289
  -0.00065155  0.50022793  0.33258289
  -0.00065155  0.50022793  0.83258289
   0.49934845  0.00022793  0.33258289
   0.49934845  0.00022793  0.83258289
   0.49934845  0.50022793  0.33258289
   0.49934845  0.50022793  0.83258289
   0.00327414  0.33120620 -0.00099553
   0.00327414  0.33120620  0.49900447
   0.00327414  0.83120620 -0.00099553
   0.00327414  0.83120620  0.49900447
   0.50327414  0.33120620 -0.00099553
   0.50327414  0.33120620  0.49900447
   0.50327414  0.83120620 -0.00099553
   0.50327414  0.83120620  0.49900447
   0.16854172  0.99661835  0.00095634
   0.16854172  0.99661835  0.50095634
   0.16854172  0.49661835  0.00095634
   0.16854172  0.49661835  0.50095634
   0.66854172  0.99661835  0.00095634
   0.66854172  0.99661835  0.50095634
   0.66854172  0.49661835  0.00095634
   0.66854172  0.49661835  0.50095634
   0.00065155  0.99977207  0.16741711
   0.00065155  0.99977207  0.66741711
   0.00065155  0.49977207  0.16741711
   0.00065155  0.49977207  0.66741711
   0.50065155  0.99977207  0.16741711
   0.50065155  0.99977207  0.66741711
   0.50065155  0.49977207  0.16741711
   0.50065155  0.49977207  0.66741711
   0.99672586  0.16879380  0.00099553
   0.99672586  0.16879380  0.50099553
   0.99672586  0.66879380  0.00099553
   0.99672586  0.66879380  0.50099553
   0.49672586  0.16879380  0.00099553
   0.49672586  0.16879380  0.50099553
   0.49672586  0.66879380  0.00099553
   0.49672586  0.66879380  0.50099553
   0.31448264  0.31660000  0.31540482
   0.31448264  0.31660000  0.81540482
   0.31448264  0.81660000  0.31540482
   0.31448264  0.81660000  0.81540482
   0.81448264  0.31660000  0.31540482
   0.81448264  0.31660000  0.81540482
   0.81448264  0.81660000  0.31540482
   0.81448264  0.81660000  0.81540482
   0.18551736  0.18340000  0.18459518
   0.18551736  0.18340000  0.68459518
   0.18551736  0.68340000  0.18459518
   0.18551736  0.68340000  0.68459518
   0.68551736  0.18340000  0.18459518
   0.68551736  0.18340000  0.68459518
   0.68551736  0.68340000  0.18459518
   0.68551736  0.68340000  0.68459518
unknown system                          
            1
     9.381468   -0.601132    4.281155
     3.569121    8.768295    4.304455
     0.114990    0.099753   10.272017
   B    C 
    96    16
Direct configuration=     5
   0.16172877  0.39948476  0.40116312
   0.16172877  0.39948476  0.90116312
   0.16172877  0.89948476  0.40116312
   0.16172877  0.89948476  0.90116312
   0.66172877  0.39948476  0.40116312
   0.66172877  0.39948476  0.90116312
   0.66172877  0.89948476  0.40116312
   0.66172877  0.89948476  0.90116312
   0.40178592  0.40378419  0.15847471
   0.40178592  0.40378419  0.65847471
   0.40178592  0.90378419  0.15847471
   0.40178592  0.90378419  0.65847471
   0.90178592  0.40378419  0.15847471
   0.90178592  0.40378419  0.65847471
   0.90178592  0.90378419  0.15847471
   0.90178592  0.90378419  0.65847471
   0.39797001  0.16015482  0.40076097
   0.39797001  0.16015482  0.90076097
   0.39797001  0.66015482  0.40076097
   0.39797001  0.66015482  0.90076097
   0.89797001  0.16015482  0.40076097
   0.89797001  0.16015482  0.90076097
   0.89797001  0.66015482  0.40076097
   0.89797001  0.66015482  0.90076097
   0.33827123  0.10051524  0.09883688
   0.33827123  0.10051524  0.59883688
   0.33827123  0.60051524  0.09883688
   0.33827123  0.60051524  0.59883688
   0.83827123  0.10051524  0.09883688
   0.83827123  0.10051524  0.59883688
   0.83827123  0.60051524  0.09883688
   0.83827123  0.60051524  0.59883688
   0.09821408  0.09621581  0.34152529
   0.09821408  0.09621581  0.84152529
   0.09821408  0.59621581  0.34152529
   0.09821408  0.59621581  0.84152529
   0.59821408  0.09621581  0.34152529
   0.59821408  0.09621581  0.84152529
   0.59821408  0.59621581  0.34152529
   0.59821408  0.59621581  0.84152529
   0.10202999  0.33984518  0.09923903
   0.10202999  0.33984518  0.59923903
   0.10202999  0.83984518  0.09923903
   0.10202999  0.83984518  0.59923903
   0.60202999  0.33984518  0.09923903
   0.60202999  0.33984518  0.59923903
   0.60202999  0.83984518  0.09923903
   0.60202999  0.83984518  0.59923903
   0.33084436  0.00305245 -0.00066773
   0.33084436  0.00305245  0.49933227
   0.33084436  0.50305245 -0.00066773
   0.33084436  0.50305245  0.49933227
   0.83084436  0.00305245 -0.00066773
   0.83084436  0.00305245  0.49933227
   0.83084436  0.50305245 -0.00066773
   0.83084436  0.50305245  0.49933227
  -0.00073234  0.00031669  0.33202566
  -0.00073234  0.00031669  0.83202566
  -0.00073234  0.50031669  0.33202566
  -0.00073234  0.50031669  0.83202566
   0.49926766  0.00031669  0.33202566
   0.49926766  0.00031669  0.83202566
   0.49926766  0.50031669  0.33202566
   0.49926766  0.50031669  0.83202566
   0.00303753  0.33069255 -0.00086037
   0.00303753  0.33069255  0.49913963
   0.00303753  0.83069255 -0.00086037
   0.00303753  0.83069255  0.49913963
   0.50303753  0.33069255 -0.00086037
   0.50303753  0.33069255  0.49913963
   0.50303753  0.83069255 -0.00086037
   0.50303753  0.83069255  0.49913963
   0.16915564  0.99694755  0.00066773
   0.16915564  0.99694755  0.50066773
   0.16915564  0.49694755  0.00066773
   0.16915564  0.49694755  0.50066773
   0.66915564  0.99694755  0.00066773
   0.66915564  0.99694755  0.50066773
   0.66915564  0.49694755  0.00066773
   0.66915564  0.49694755  0.50066773
   0.00073234  0.99968331  0.16797434
   0.00073234  0.99968331  0.66797434
   0.00073234  0.49968331  0.16797434
   0.00073234  0.49968331  0.66797434
   0.50073234  0.99968331  0.16797434
   0.50073234  0.99968331  0.66797434
   0.50073234  0.49968331  0.16797434
   0.50073234  0.49968331  0.66797434
   0.99696247  0.16930745  0.00086037
   0.99696247  0.16930745  0.50086037
   0.99696247  0.66930745  0.00086037
   0.99696247  0.66930745  0.50086037
   0.49696247  0.16930745  0.00086037
   0.49696247  0.16930745  0.50086037
   0.49696247  0.66930745  0.00086037
   0.49696247  0.66930745  0.50086037
   0.31727975  0.31659762  0.31232046
   0.31727975  0.31659762  0.81232046
   0.31727975  0.81659762  0.31232046
   0.31727975  0.81659762  0.81232046
   0.81727975  0.31659762  0.31232046
   0.81727975  0.31659762  0.81232046
   0.81727975  0.81659762  0.31232046
   0.81727975  0.81659762  0.81232046
   0.18272025  0.18340238  0.18767954
   0.18272025  0.18340238  0.68767954
   0.18272025  0.68340238  0.18767954
   0.18272025  0.68340238  0.68767954
   0.68272025  0.18340238  0.18767954
   0.68272025  0.18340238  0.68767954
   0.68272025  0.68340238  0.18767954
   0.68272025  0.68340238  0.68767954
unknown system                          
            1
     9.367373   -0.608191    4.279231
     3.552690    8.763570    4.311656
     0.105790    0.104007   10.287614
   B    C 
    96    16
Direct configuration=     6
   0.16173935  0.39958825  0.39982436
   0.16173935  0.39958825  0.89982436
   0.16173935  0.89958825  0.39982436
   0.16173935  0.89958825  0.89982436
   0.66173935  0.39958825  0.39982436
   0.66173935  0.39958825  0.89982436
   0.66173935  0.89958825  0.39982436
   0.66173935  0.89958825  0.89982436
   0.40154795  0.40178622  0.15925995
   0.40154795  0.40178622  0.65925995
   0.40154795  0.90178622  0.15925995
   0.40154795  0.90178622  0.65925995
   0.90154795  0.40178622  0.15925995
   0.90154795  0.40178622  0.65925995
   0.90154795  0.90178622  0.15925995
   0.90154795  0.90178622  0.65925995
   0.39918260  0.16063520  0.39944008
   0.39918260  0.16063520  0.89944008
   0.39918260  0.66063520  0.39944008
   0.39918260  0.66063520  0.89944008
   0.89918260  0.16063520  0.39944008
   0.89918260  0.16063520  0.89944008
   0.89918260  0.66063520  0.39944008
   0.89918260  0.66063520  0.89944008
   0.33826065  0.10041175  0.10017564
   0.33826065  0.10041175  0.60017564
   0.33826065  0.60041175  0.10017564
   0.33826065  0.60041175  0.60017564
   0.83826065  0.10041175  0.10017564
   0.83826065  0.10041175  0.60017564
   0.83826065  0.60041175  0.10017564
   0.83826065  0.60041175  0.60017564
   0.09845205  0.09821378  0.34074005
   0.09845205  0.09821378  0.84074005
   0.09845205  0.59821378  0.34074005
   0.09845205  0.59821378  0.84074005
   0.59845205  0.09821378  0.34074005
   0.59845205  0.09821378  0.84074005
   0.59845205  0.59821378  0.34074005
   0.59845205  0.59821378  0.84074005
   0.10081740  0.33936480  0.10055992
   0.10081740  0.33936480  0.60055992
   0.10081740  0.83936480  0.10055992
   0.10081740  0.83936480  0.60055992
   0.60081740  0.33936480  0.10055992
   0.60081740  0.33936480  0.60055992
   0.60081740  0.83936480  0.10055992
   0.60081740  0.83936480  0.60055992
   0.33192614  0.00155965 -0.00056904
   0.33192614  0.00155965  0.49943096
   0.33192614  0.50155965 -0.00056904
   0.33192614  0.50155965  0.49943096
   0.83192614  0.00155965 -0.00056904
   0.83192614  0.00155965  0.49943096
   0.83192614  0.50155965 -0.00056904
   0.83192614  0.50155965  0.49943096
  -0.00013570 -0.00028756  0.33315479
  -0.00013570 -0.00028756  0.83315479
  -0.00013570  0.49971244  0.33315479
  -0.00013570  0.49971244  0.83315479
   0.49986430 -0.00028756  0.33315479
   0.49986430 -0.00028756  0.83315479
   0.49986430  0.49971244  0.33315479
   0.49986430  0.49971244  0.83315479
   0.00202861  0.33175217 -0.00037625
   0.00202861  0.33175217  0.49962375
   0.00202861  0.83175217 -0.00037625
   0.00202861  0.83175217  0.49962375
   0.50202861  0.33175217 -0.00037625
   0.50202861  0.33175217  0.49962375
   0.50202861  0.83175217 -0.00037625
   0.50202861  0.83175217  0.49962375
   0.16807386  0.99844035  0.00056904
   0.16807386  0.99844035  0.50056904
   0.16807386  0.49844035  0.00056904
   0.16807386  0.49844035  0.50056904
   0.66807386  0.99844035  0.00056904
   0.66807386  0.99844035  0.50056904
   0.66807386  0.49844035  0.00056904
   0.66807386  0.49844035  0.50056904
   0.00013570  0.00028756  0.16684521
   0.00013570  0.00028756  0.66684521
   0.00013570  0.50028756  0.16684521
   0.00013570  0.50028756  0.66684521
   0.50013570  0.00028756  0.16684521
   0.50013570  0.00028756  0.66684521
   0.50013570  0.50028756  0.16684521
   0.50013570  0.50028756  0.66684521
   0.99797139  0.16824783  0.00037625
   0.99797139  0.16824783  0.50037625
   0.99797139  0.66824783  0.00037625
   0.99797139  0.66824783  0.50037625
   0.49797139  0.16824783  0.00037625
   0.49797139  0.16824783  0.50037625
   0.49797139  0.66824783  0.00037625
   0.49797139  0.66824783  0.50037625
   0.31681817  0.31651019  0.31309084
   0.31681817  0.31651019  0.81309084
   0.31681817  0.81651019  0.31309084
   0.31681817  0.81651019  0.81309084
   0.81681817  0.31651019  0.31309084
   0.81681817  0.31651019  0.81309084
   0.81681817  0.81651019  0.31309084
   0.81681817  0.81651019  0.81309084
   0.18318183  0.18348981  0.18690916
   0.18318183  0.18348981  0.68690916
   0.18318183  0.68348981  0.18690916
   0.18318183  0.68348981  0.68690916
   0.68318183  0.18348981  0.18690916
   0.68318183  0.18348981  0.68690916
   0.68318183  0.68348981  0.18690916
   0.68318183  0.68348981  0.68690916
unknown system                          
            1
     9.367784   -0.607985    4.279287
     3.553169    8.763708    4.311446
     0.106059    0.103883   10.287159
   B    C 
    96    16
Direct configuration=     7
   0.16173908  0.39958521  0.39986335
   0.16173908  0.39958521  0.89986335
   0.16173908  0.89958521  0.39986335
   0.16173908  0.89958521  0.89986335
   0.66173908  0.39958521  0.39986335
   0.66173908  0.39958521  0.89986335
   0.66173908  0.89958521  0.39986335
   0.66173908  0.89958521  0.89986335
   0.40155497  0.40184457  0.15923698
   0.40155497  0.40184457  0.65923698
   0.40155497  0.90184457  0.15923698
   0.40155497  0.90184457  0.65923698
   0.90155497  0.40184457  0.15923698
   0.90155497  0.40184457  0.65923698
   0.90155497  0.90184457  0.15923698
   0.90155497  0.90184457  0.65923698
   0.39914720  0.16062112  0.39947859
   0.39914720  0.16062112  0.89947859
   0.39914720  0.66062112  0.39947859
   0.39914720  0.66062112  0.89947859
   0.89914720  0.16062112  0.39947859
   0.89914720  0.16062112  0.89947859
   0.89914720  0.66062112  0.39947859
   0.89914720  0.66062112  0.89947859
   0.33826092  0.10041479  0.10013665
   0.33826092  0.10041479  0.60013665
   0.33826092  0.60041479  0.10013665
   0.33826092  0.60041479  0.60013665
   0.83826092  0.10041479  0.10013665
   0.83826092  0.10041479  0.60013665
   0.83826092  0.60041479  0.10013665
   0.83826092  0.60041479  0.60013665
   0.09844503  0.09815543  0.34076302
   0.09844503  0.09815543  0.84076302
   0.09844503  0.59815543  0.34076302
   0.09844503  0.59815543  0.84076302
   0.59844503  0.09815543  0.34076302
   0.59844503  0.09815543  0.84076302
   0.59844503  0.59815543  0.34076302
   0.59844503  0.59815543  0.84076302
   0.10085280  0.33937888  0.10052141
   0.10085280  0.33937888  0.60052141
   0.10085280  0.83937888  0.10052141
   0.10085280  0.83937888  0.60052141
   0.60085280  0.33937888  0.10052141
   0.60085280  0.33937888  0.60052141
   0.60085280  0.83937888  0.10052141
   0.60085280  0.83937888  0.60052141
   0.33189460  0.00160321 -0.00057196
   0.33189460  0.00160321  0.49942804
   0.33189460  0.50160321 -0.00057196
   0.33189460  0.50160321  0.49942804
   0.83189460  0.00160321 -0.00057196
   0.83189460  0.00160321  0.49942804
   0.83189460  0.50160321 -0.00057196
   0.83189460  0.50160321  0.49942804
  -0.00015314 -0.00026992  0.33312189
  -0.00015314 -0.00026992  0.83312189
  -0.00015314  0.49973008  0.33312189
  -0.00015314  0.49973008  0.83312189
   0.49984686 -0.00026992  0.33312189
   0.49984686 -0.00026992  0.83312189
   0.49984686  0.49973008  0.33312189
   0.49984686  0.49973008  0.83312189
   0.00205802  0.33172127 -0.00039032
   0.00205802  0.33172127  0.49960968
   0.00205802  0.83172127 -0.00039032
   0.00205802  0.83172127  0.49960968
   0.50205802  0.33172127 -0.00039032
   0.50205802  0.33172127  0.49960968
   0.50205802  0.83172127 -0.00039032