 120 120   0   0
  0.7279435E+01  0.1014539E-08  0.1040844E-08  0.1040844E-08  0.5000000E-15
    300.0000000000000     
  CAR 
 unknown system                          
     14.72129125    -12.98324910  301      7.87845539      1.00000000
    -12.983  0.0000E+00  0.0000E+00
    -12.891  0.0000E+00  0.0000E+00
    -12.799  0.0000E+00  0.0000E+00
    -12.706  0.0000E+00  0.0000E+00
    -12.614  0.0000E+00  0.0000E+00
    -12.522  0.0000E+00  0.0000E+00
    -12.429  0.0000E+00  0.0000E+00
    -12.337  0.0000E+00  0.0000E+00
    -12.244  0.0000E+00  0.0000E+00
    -12.152  0.0000E+00  0.0000E+00
    -12.060  0.0000E+00  0.0000E+00
    -11.967  0.0000E+00  0.0000E+00
    -11.875  0.0000E+00  0.0000E+00
    -11.783  0.0000E+00  0.0000E+00
    -11.690  0.0000E+00  0.0000E+00
    -11.598  0.0000E+00  0.0000E+00
    -11.506  0.0000E+00  0.0000E+00
    -11.413  0.0000E+00  0.0000E+00
    -11.321  0.0000E+00  0.0000E+00
    -11.229  0.0000E+00  0.0000E+00
    -11.136  0.0000E+00  0.0000E+00
    -11.044  0.0000E+00  0.0000E+00
    -10.952  0.4252E+00  0.4859E-02
    -10.859  0.5993E+01  0.2503E+00
    -10.767  0.1548E+02  0.1327E+01
    -10.675  0.2193E+02  0.2765E+01
    -10.582  0.4419E+01  0.3907E+01
    -10.490  0.2119E+02  0.4621E+01
    -10.397  0.2826E+02  0.6819E+01
    -10.305  0.3650E+02  0.9436E+01
    -10.213  0.2308E+02  0.1181E+02
    -10.120  0.2555E+02  0.1386E+02
    -10.028  0.1085E+02  0.1530E+02
     -9.936  0.2500E+01  0.1564E+02
     -9.843  0.5254E+01  0.1593E+02
     -9.751  0.2403E-01  0.1600E+02
     -9.659  0.0000E+00  0.1600E+02
     -9.566  0.0000E+00  0.1600E+02
     -9.474  0.0000E+00  0.1600E+02
     -9.382  0.0000E+00  0.1600E+02
     -9.289  0.0000E+00  0.1600E+02
     -9.197  0.0000E+00  0.1600E+02
     -9.105  0.2128E-01  0.1600E+02
     -9.012  0.7791E+00  0.1602E+02
     -8.920  0.4744E+01  0.1624E+02
     -8.828  0.1413E+02  0.1707E+02
     -8.735  0.2632E+02  0.1904E+02
     -8.643  0.2427E+02  0.2123E+02
     -8.551  0.2035E+02  0.2326E+02
     -8.458  0.2168E+02  0.2506E+02
     -8.366  0.2292E+02  0.2707E+02
     -8.273  0.2200E+02  0.2888E+02
     -8.181  0.1745E+02  0.3073E+02
     -8.089  0.7665E+01  0.3174E+02
     -7.996  0.1008E+02  0.3250E+02
     -7.904  0.1475E+02  0.3368E+02
     -7.812  0.1418E+02  0.3503E+02
     -7.719  0.1486E+02  0.3634E+02
     -7.627  0.2224E+02  0.3804E+02
     -7.535  0.2581E+02  0.4029E+02
     -7.442  0.1831E+02  0.4237E+02
     -7.350  0.9636E+01  0.4358E+02
     -7.258  0.1228E+02  0.4452E+02
     -7.165  0.1757E+02  0.4589E+02
     -7.073  0.1438E+02  0.4747E+02
     -6.981  0.1364E+02  0.4873E+02
     -6.888  0.1828E+02  0.5011E+02
     -6.796  0.1789E+02  0.5185E+02
     -6.704  0.2446E+02  0.5378E+02
     -6.611  0.1094E+02  0.5552E+02
     -6.519  0.9352E+01  0.5633E+02
     -6.427  0.1313E+02  0.5737E+02
     -6.334  0.1662E+02  0.5875E+02
     -6.242  0.1880E+02  0.6042E+02
     -6.149  0.1538E+02  0.6202E+02
     -6.057  0.1028E+02  0.6321E+02
     -5.965  0.3232E+01  0.6384E+02
     -5.872  0.2681E+01  0.6402E+02
     -5.780  0.1616E+02  0.6479E+02
     -5.688  0.2171E+02  0.6677E+02
     -5.595  0.1170E+02  0.6826E+02
     -5.503  0.1990E+02  0.6951E+02
     -5.411  0.3541E+02  0.7228E+02
     -5.318  0.2790E+02  0.7501E+02
     -5.226  0.2043E+02  0.7664E+02
     -5.134  0.2844E+02  0.7883E+02
     -5.041  0.2591E+02  0.8142E+02
     -4.949  0.1661E+02  0.8348E+02
     -4.857  0.2571E+02  0.8524E+02
     -4.764  0.1782E+02  0.8719E+02
     -4.672  0.1669E+02  0.8857E+02
     -4.580  0.1727E+02  0.9016E+02
     -4.487  0.1815E+02  0.9178E+02
     -4.395  0.1695E+02  0.9348E+02
     -4.302  0.9792E+01  0.9469E+02
     -4.210  0.5794E+01  0.9539E+02
     -4.118  0.2867E+01  0.9578E+02
     -4.025  0.9871E+00  0.9595E+02
     -3.933  0.1458E+00  0.9600E+02
     -3.841  0.5735E+00  0.9601E+02
     -3.748  0.3824E+01  0.9621E+02
     -3.656  0.7224E+01  0.9672E+02
     -3.564  0.1054E+02  0.9755E+02
     -3.471  0.1293E+02  0.9864E+02
     -3.379  0.1445E+02  0.9991E+02
     -3.287  0.1645E+02  0.1013E+03
     -3.194  0.1919E+02  0.1030E+03
     -3.102  0.2157E+02  0.1049E+03
     -3.010  0.2130E+02  0.1069E+03
     -2.917  0.1712E+02  0.1088E+03
     -2.825  0.2466E+02  0.1103E+03
     -2.733  0.2643E+02  0.1127E+03
     -2.640  0.2633E+02  0.1151E+03
     -2.548  0.2127E+02  0.1170E+03
     -2.456  0.2220E+02  0.1191E+03
     -2.363  0.1802E+02  0.1209E+03
     -2.271  0.2492E+02  0.1231E+03
     -2.178  0.2689E+02  0.1254E+03
     -2.086  0.3382E+02  0.1282E+03
     -1.994  0.2952E+02  0.1310E+03
     -1.901  0.3046E+02  0.1337E+03
     -1.809  0.3946E+02  0.1369E+03
     -1.717  0.4221E+02  0.1408E+03
     -1.624  0.3295E+02  0.1443E+03
     -1.532  0.2697E+02  0.1470E+03
     -1.440  0.2439E+02  0.1494E+03
     -1.347  0.1382E+02  0.1512E+03
     -1.255  0.3177E+02  0.1530E+03
     -1.163  0.3919E+02  0.1560E+03
     -1.070  0.3973E+02  0.1596E+03
     -0.978  0.3437E+02  0.1630E+03
     -0.886  0.2839E+02  0.1660E+03
     -0.793  0.3042E+02  0.1685E+03
     -0.701  0.3608E+02  0.1717E+03
     -0.609  0.2821E+02  0.1747E+03
     -0.516  0.2559E+02  0.1772E+03
     -0.424  0.2872E+02  0.1796E+03
     -0.332  0.2725E+02  0.1823E+03
     -0.239  0.2016E+02  0.1845E+03
     -0.147  0.3239E+02  0.1868E+03
     -0.054  0.3115E+02  0.1892E+03
      0.038  0.4828E+02  0.1931E+03
      0.130  0.4282E+02  0.1974E+03
      0.223  0.2497E+02  0.2004E+03
      0.315  0.3401E+02  0.2031E+03
      0.407  0.3125E+02  0.2061E+03
      0.500  0.3246E+02  0.2090E+03
      0.592  0.2894E+02  0.2119E+03
      0.684  0.2957E+02  0.2145E+03
      0.777  0.3085E+02  0.2173E+03
      0.869  0.3909E+02  0.2205E+03
      0.961  0.4120E+02  0.2243E+03
      1.054  0.4091E+02  0.2281E+03
      1.146  0.3984E+02  0.2319E+03
      1.238  0.3371E+02  0.2353E+03
      1.331  0.2879E+02  0.2381E+03
      1.423  0.2846E+02  0.2407E+03
      1.515  0.3850E+02  0.2438E+03
      1.608  0.4214E+02  0.2476E+03
      1.700  0.3854E+02  0.2514E+03
      1.793  0.3860E+02  0.2548E+03
      1.885  0.5618E+02  0.2589E+03
      1.977  0.5510E+02  0.2638E+03
      2.070  0.4956E+02  0.2683E+03
      2.162  0.4431E+02  0.2722E+03
      2.254  0.3831E+02  0.2756E+03
      2.347  0.5511E+02  0.2795E+03
      2.439  0.5777E+02  0.2842E+03
      2.531  0.5168E+02  0.2886E+03
      2.624  0.5078E+02  0.2930E+03
      2.716  0.4731E+02  0.2973E+03
      2.808  0.4107E+02  0.3012E+03
      2.901  0.4930E+02  0.3052E+03
      2.993  0.5410E+02  0.3100E+03
      3.085  0.4808E+02  0.3146E+03
      3.178  0.5261E+02  0.3189E+03
      3.270  0.4123E+02  0.3233E+03
      3.362  0.3876E+02  0.3268E+03
      3.455  0.3694E+02  0.3302E+03
      3.547  0.3646E+02  0.3336E+03
      3.639  0.4484E+02  0.3372E+03
      3.732  0.4842E+02  0.3415E+03
      3.824  0.4517E+02  0.3457E+03
      3.917  0.3899E+02  0.3495E+03
      4.009  0.5035E+02  0.3533E+03
      4.101  0.5211E+02  0.3576E+03
      4.194  0.4499E+02  0.3618E+03
      4.286  0.3820E+02  0.3654E+03
      4.378  0.3539E+02  0.3687E+03
      4.471  0.3633E+02  0.3720E+03
      4.563  0.3252E+02  0.3752E+03
      4.655  0.2815E+02  0.3780E+03
      4.748  0.2215E+02  0.3803E+03
      4.840  0.1394E+02  0.3820E+03
      4.932  0.7496E+01  0.3830E+03
      5.025  0.3666E+01  0.3835E+03
      5.117  0.1850E+01  0.3837E+03
      5.209  0.9548E+00  0.3838E+03
      5.302  0.9238E+00  0.3839E+03
      5.394  0.4974E+00  0.3840E+03
      5.486  0.1558E+00  0.3840E+03
      5.579  0.3915E-01  0.3840E+03
      5.671  0.1723E-02  0.3840E+03
      5.763  0.0000E+00  0.3840E+03
      5.856  0.0000E+00  0.3840E+03
      5.948  0.0000E+00  0.3840E+03
      6.041  0.0000E+00  0.3840E+03
      6.133  0.0000E+00  0.3840E+03
      6.225  0.0000E+00  0.3840E+03
      6.318  0.0000E+00  0.3840E+03
      6.410  0.0000E+00  0.3840E+03
      6.502  0.0000E+00  0.3840E+03
      6.595  0.0000E+00  0.3840E+03
      6.687  0.0000E+00  0.3840E+03
      6.779  0.0000E+00  0.3840E+03
      6.872  0.0000E+00  0.3840E+03
      6.964  0.0000E+00  0.3840E+03
      7.056  0.0000E+00  0.3840E+03
      7.149  0.0000E+00  0.3840E+03
      7.241  0.0000E+00  0.3840E+03
      7.333  0.0000E+00  0.3840E+03
      7.426  0.0000E+00  0.3840E+03
      7.518  0.0000E+00  0.3840E+03
      7.610  0.2465E-01  0.3840E+03
      7.703  0.2027E+00  0.3840E+03
      7.795  0.8777E+00  0.3841E+03
      7.888  0.1779E+01  0.3842E+03
      7.980  0.4190E+01  0.3844E+03
      8.072  0.1058E+02  0.3851E+03
      8.165  0.1980E+02  0.3864E+03
      8.257  0.2551E+02  0.3885E+03
      8.349  0.2474E+02  0.3907E+03
      8.442  0.2487E+02  0.3930E+03
      8.534  0.2334E+02  0.3950E+03
      8.626  0.2495E+02  0.3973E+03
      8.719  0.2533E+02  0.3996E+03
      8.811  0.2696E+02  0.4020E+03
      8.903  0.2649E+02  0.4045E+03
      8.996  0.2581E+02  0.4069E+03
      9.088  0.2779E+02  0.4094E+03
      9.180  0.3110E+02  0.4121E+03
      9.273  0.3343E+02  0.4151E+03
      9.365  0.2837E+02  0.4180E+03
      9.457  0.2512E+02  0.4204E+03
      9.550  0.3075E+02  0.4229E+03
      9.642  0.3212E+02  0.4259E+03
      9.734  0.3588E+02  0.4288E+03
      9.827  0.3556E+02  0.4319E+03
      9.919  0.3207E+02  0.4347E+03
     10.012  0.2932E+02  0.4373E+03
     10.104  0.2599E+02  0.4398E+03
     10.196  0.2578E+02  0.4421E+03
     10.289  0.3059E+02  0.4446E+03
     10.381  0.3012E+02  0.4474E+03
     10.473  0.2682E+02  0.4500E+03
     10.566  0.2352E+02  0.4523E+03
     10.658  0.2342E+02  0.4544E+03
     10.750  0.2404E+02  0.4566E+03
     10.843  0.2322E+02  0.4588E+03
     10.935  0.2267E+02  0.4609E+03
     11.027  0.2470E+02  0.4631E+03
     11.120  0.2701E+02  0.4655E+03
     11.212  0.2694E+02  0.4680E+03
     11.304  0.2429E+02  0.4704E+03
     11.397  0.2200E+02  0.4725E+03
     11.489  0.2181E+02  0.4745E+03
     11.581  0.2581E+02  0.4767E+03
     11.674  0.2774E+02  0.4792E+03
     11.766  0.2324E+02  0.4816E+03
     11.858  0.2229E+02  0.4836E+03
     11.951  0.2567E+02  0.4859E+03
     12.043  0.2985E+02  0.4882E+03
     12.136  0.3177E+02  0.4910E+03
     12.228  0.2838E+02  0.4935E+03
     12.320  0.2509E+02  0.4957E+03
     12.413  0.3005E+02  0.4982E+03
     12.505  0.3030E+02  0.5009E+03
     12.597  0.2804E+02  0.5035E+03
     12.690  0.2076E+02  0.5057E+03
     12.782  0.1354E+00  0.5060E+03
     12.874  0.0000E+00  0.5060E+03
     12.967  0.0000E+00  0.5060E+03
     13.059  0.0000E+00  0.5060E+03
     13.151  0.0000E+00  0.5060E+03
     13.244  0.0000E+00  0.5060E+03
     13.336  0.0000E+00  0.5060E+03
     13.428  0.0000E+00  0.5060E+03
     13.521  0.0000E+00  0.5060E+03
     13.613  0.0000E+00  0.5060E+03
     13.705  0.0000E+00  0.5060E+03
     13.798  0.0000E+00  0.5060E+03
     13.890  0.0000E+00  0.5060E+03
     13.983  0.0000E+00  0.5060E+03
     14.075  0.0000E+00  0.5060E+03
     14.167  0.0000E+00  0.5060E+03
     14.260  0.0000E+00  0.5060E+03
     14.352  0.0000E+00  0.5060E+03
     14.444  0.0000E+00  0.5060E+03
     14.537  0.0000E+00  0.5060E+03
     14.629  0.0000E+00  0.5060E+03
     14.721  0.0000E+00  0.5060E+03
     14.76628448    -12.99053491  301      7.88431174      1.00000000
    -12.991  0.0000E+00  0.0000E+00
    -12.898  0.0000E+00  0.0000E+00
    -12.805  0.0000E+00  0.0000E+00
    -12.713  0.0000E+00  0.0000E+00
    -12.620  0.0000E+00  0.0000E+00
    -12.528  0.0000E+00  0.0000E+00
    -12.435  0.0000E+00  0.0000E+00
    -12.343  0.0000E+00  0.0000E+00
    -12.250  0.0000E+00  0.0000E+00
    -12.158  0.0000E+00  0.0000E+00
    -12.065  0.0000E+00  0.0000E+00
    -11.973  0.0000E+00  0.0000E+00
    -11.880  0.0000E+00  0.0000E+00
    -11.788  0.0000E+00  0.0000E+00
    -11.695  0.0000E+00  0.0000E+00
    -11.603  0.0000E+00  0.0000E+00
    -11.510  0.0000E+00  0.0000E+00
    -11.418  0.0000E+00  0.0000E+00
    -11.325  0.0000E+00  0.0000E+00
    -11.233  0.0000E+00  0.0000E+00
    -11.140  0.0000E+00  0.0000E+00
    -11.048  0.0000E+00  0.0000E+00
    -10.955  0.1560E-02  0.1847E-04
    -10.863  0.2029E-01  0.8660E-03
    -10.770  0.6301E-01  0.5646E-02
    -10.677  0.7214E-01  0.9013E-02
    -10.585  0.1015E-01  0.1330E-01
    -10.492  0.8553E-01  0.1721E-01
    -10.400  0.6712E-01  0.2085E-01
    -10.307  0.1302E+00  0.2901E-01
    -10.215  0.8567E-01  0.3494E-01
    -10.122  0.8734E-01  0.4184E-01
    -10.030  0.1243E+00  0.5038E-01
     -9.937  0.0000E+00  0.5333E-01
     -9.845  0.0000E+00  0.5333E-01
     -9.752  0.0000E+00  0.5333E-01
     -9.660  0.0000E+00  0.5333E-01
     -9.567  0.0000E+00  0.5333E-01
     -9.475  0.0000E+00  0.5333E-01
     -9.382  0.0000E+00  0.5333E-01
     -9.290  0.0000E+00  0.5333E-01
     -9.197  0.0000E+00  0.5333E-01
     -9.105  0.0000E+00  0.5333E-01
     -9.012  0.9940E-03  0.5335E-01
     -8.920  0.1483E-01  0.5392E-01
     -8.827  0.5020E-01  0.5676E-01
     -8.734  0.1177E+00  0.6530E-01
     -8.642  0.5809E-01  0.7248E-01
     -8.549  0.5866E-01  0.8000E-01
     -8.457  0.1299E+00  0.8581E-01
     -8.364  0.2368E-01  0.9319E-01
     -8.272  0.6745E-01  0.9714E-01
     -8.179  0.6418E-01  0.1037E+00
     -8.087  0.1284E-01  0.1065E+00
     -7.994  0.4523E-01  0.1086E+00
     -7.902  0.8477E-01  0.1151E+00
     -7.809  0.1918E-01  0.1192E+00
     -7.717  0.5685E-01  0.1233E+00
     -7.624  0.9508E-01  0.1304E+00
     -7.532  0.9030E-01  0.1394E+00
     -7.439  0.2722E-01  0.1449E+00
     -7.347  0.1834E-01  0.1466E+00
     -7.254  0.7813E-01  0.1507E+00
     -7.162  0.5686E-01  0.1592E+00
     -7.069  0.2031E-01  0.1616E+00
     -6.977  0.4092E-01  0.1643E+00
     -6.884  0.5837E-01  0.1691E+00
     -6.792  0.5904E-01  0.1744E+00
     -6.699  0.8152E-01  0.1812E+00
     -6.606  0.1744E-01  0.1861E+00
     -6.514  0.3388E-01  0.1885E+00
     -6.421  0.4597E-01  0.1924E+00
     -6.329  0.5672E-01  0.1972E+00
     -6.236  0.5533E-01  0.2026E+00
     -6.144  0.4789E-01  0.2076E+00
     -6.051  0.3082E-01  0.2113E+00
     -5.959  0.7305E-02  0.2132E+00
     -5.866  0.1263E-01  0.2136E+00
     -5.774  0.6633E-01  0.2172E+00
     -5.681  0.7441E-01  0.2235E+00
     -5.589  0.3711E-01  0.2283E+00
     -5.496  0.1185E+00  0.2329E+00
     -5.404  0.1316E+00  0.2442E+00
     -5.311  0.1317E+00  0.2517E+00
     -5.219  0.8483E-01  0.2566E+00
     -5.126  0.8850E-01  0.2652E+00
     -5.034  0.8971E-01  0.2727E+00
     -4.941  0.3295E-01  0.2798E+00
     -4.849  0.1258E+00  0.2862E+00
     -4.756  0.3949E-01  0.2921E+00
     -4.663  0.5787E-01  0.2965E+00
     -4.571  0.5907E-01  0.3020E+00
     -4.478  0.5467E-01  0.3070E+00
     -4.386  0.4891E-01  0.3119E+00
     -4.293  0.3125E-01  0.3159E+00
     -4.201  0.1851E-01  0.3182E+00
     -4.108  0.8727E-02  0.3194E+00
     -4.016  0.2466E-02  0.3199E+00
     -3.923  0.1221E-03  0.3200E+00
     -3.831  0.9806E-02  0.3202E+00
     -3.738  0.1793E-01  0.3213E+00
     -3.646  0.2595E-01  0.3233E+00
     -3.553  0.3847E-01  0.3263E+00
     -3.461  0.4623E-01  0.3303E+00
     -3.368  0.4984E-01  0.3347E+00
     -3.276  0.5713E-01  0.3396E+00
     -3.183  0.5904E-01  0.3451E+00
     -3.091  0.7280E-01  0.3515E+00
     -2.998  0.6761E-01  0.3581E+00
     -2.906  0.4432E-01  0.3645E+00
     -2.813  0.1027E+00  0.3706E+00
     -2.721  0.1136E+00  0.3781E+00
     -2.628  0.7449E-01  0.3861E+00
     -2.535  0.7969E-01  0.3930E+00
     -2.443  0.6021E-01  0.3990E+00
     -2.350  0.7505E-01  0.4044E+00
     -2.258  0.8437E-01  0.4121E+00
     -2.165  0.1079E+00  0.4201E+00
     -2.073  0.1138E+00  0.4304E+00
     -1.980  0.9002E-01  0.4389E+00
     -1.888  0.1154E+00  0.4483E+00
     -1.795  0.1495E+00  0.4608E+00
     -1.703  0.1287E+00  0.4739E+00
     -1.610  0.8774E-01  0.4840E+00
     -1.518  0.9433E-01  0.4924E+00
     -1.425  0.7047E-01  0.5004E+00
     -1.333  0.2906E-01  0.5051E+00
     -1.240  0.1489E+00  0.5127E+00
     -1.148  0.1358E+00  0.5229E+00
     -1.055  0.1437E+00  0.5356E+00
     -0.963  0.1083E+00  0.5476E+00
     -0.870  0.8485E-01  0.5565E+00
     -0.778  0.1187E+00  0.5662E+00
     -0.685  0.1135E+00  0.5768E+00
     -0.592  0.8393E-01  0.5860E+00
     -0.500  0.7766E-01  0.5931E+00
     -0.407  0.9724E-01  0.6013E+00
     -0.315  0.8996E-01  0.6102E+00
     -0.222  0.7730E-01  0.6170E+00
     -0.130  0.9823E-01  0.6266E+00
     -0.037  0.1135E+00  0.6361E+00
      0.055  0.1705E+00  0.6486E+00
      0.148  0.1177E+00  0.6640E+00
      0.240  0.9587E-01  0.6717E+00
      0.333  0.1083E+00  0.6822E+00
      0.425  0.1009E+00  0.6916E+00
      0.518  0.1063E+00  0.7014E+00
      0.610  0.8931E-01  0.7104E+00
      0.703  0.1002E+00  0.7195E+00
      0.795  0.1057E+00  0.7285E+00
      0.888  0.1539E+00  0.7410E+00
      0.980  0.1368E+00  0.7545E+00
      1.073  0.1431E+00  0.7673E+00
      1.165  0.1187E+00  0.7794E+00
      1.258  0.9425E-01  0.7893E+00
      1.350  0.9339E-01  0.7978E+00
      1.443  0.9686E-01  0.8061E+00
      1.536  0.1475E+00  0.8180E+00
      1.628  0.1502E+00  0.8323E+00
      1.721  0.1120E+00  0.8450E+00
      1.813  0.2449E+00  0.8558E+00
      1.906  0.1898E+00  0.8716E+00
      1.998  0.1670E+00  0.8872E+00
      2.091  0.1273E+00  0.9020E+00
      2.183  0.1537E+00  0.9143E+00
      2.276  0.1218E+00  0.9251E+00
      2.368  0.3205E+00  0.9389E+00
      2.461  0.1882E+00  0.9550E+00
      2.553  0.1685E+00  0.9712E+00
      2.646  0.1735E+00  0.9853E+00
      2.738  0.1505E+00  0.9984E+00
      2.831  0.1350E+00  0.1012E+01
      2.923  0.1574E+00  0.1025E+01
      3.016  0.1865E+00  0.1041E+01
      3.108  0.1449E+00  0.1056E+01
      3.201  0.1455E+00  0.1072E+01
      3.293  0.1047E+00  0.1084E+01
      3.386  0.1079E+00  0.1095E+01
      3.479  0.1222E+00  0.1105E+01
      3.571  0.1632E+00  0.1119E+01
      3.664  0.1447E+00  0.1133E+01
      3.756  0.1285E+00  0.1145E+01
      3.849  0.1537E+00  0.1159E+01
      3.941  0.8583E-01  0.1171E+01
      4.034  0.1445E+00  0.1184E+01
      4.126  0.1946E+00  0.1200E+01
      4.219  0.1490E+00  0.1213E+01
      4.311  0.1275E+00  0.1224E+01
      4.404  0.1175E+00  0.1235E+01
      4.496  0.1177E+00  0.1246E+01
      4.589  0.8763E-01  0.1255E+01
      4.681  0.7785E-01  0.1263E+01
      4.774  0.6527E-01  0.1270E+01
      4.866  0.4717E-01  0.1275E+01
      4.959  0.2250E-01  0.1278E+01
      5.051  0.8118E-02  0.1279E+01
      5.144  0.2454E-02  0.1280E+01
      5.236  0.5415E-04  0.1280E+01
      5.329  0.0000E+00  0.1280E+01
      5.421  0.0000E+00  0.1280E+01
      5.514  0.0000E+00  0.1280E+01
      5.607  0.0000E+00  0.1280E+01
      5.699  0.0000E+00  0.1280E+01
      5.792  0.0000E+00  0.1280E+01
      5.884  0.0000E+00  0.1280E+01
      5.977  0.0000E+00  0.1280E+01
      6.069  0.0000E+00  0.1280E+01
      6.162  0.0000E+00  0.1280E+01
      6.254  0.0000E+00  0.1280E+01
      6.347  0.0000E+00  0.1280E+01
      6.439  0.0000E+00  0.1280E+01
      6.532  0.0000E+00  0.1280E+01
      6.624  0.0000E+00  0.1280E+01
      6.717  0.0000E+00  0.1280E+01
      6.809  0.0000E+00  0.1280E+01
      6.902  0.0000E+00  0.1280E+01
      6.994  0.0000E+00  0.1280E+01
      7.087  0.0000E+00  0.1280E+01
      7.179  0.0000E+00  0.1280E+01
      7.272  0.0000E+00  0.1280E+01
      7.364  0.0000E+00  0.1280E+01
      7.457  0.0000E+00  0.1280E+01
      7.550  0.0000E+00  0.1280E+01
      7.642  0.0000E+00  0.1280E+01
      7.735  0.0000E+00  0.1280E+01
      7.827  0.0000E+00  0.1280E+01
      7.920  0.3955E-03  0.1280E+01
      8.012  0.7061E-02  0.1280E+01
      8.105  0.2615E-01  0.1282E+01
      8.197  0.9326E-01  0.1287E+01
      8.290  0.9104E-01  0.1296E+01
      8.382  0.1051E+00  0.1305E+01
      8.475  0.5617E-01  0.1311E+01
      8.567  0.1017E+00  0.1319E+01
      8.660  0.7448E-01  0.1327E+01
      8.752  0.8201E-01  0.1334E+01
      8.845  0.8953E-01  0.1342E+01
      8.937  0.9753E-01  0.1350E+01
      9.030  0.1100E+00  0.1360E+01
      9.122  0.9976E-01  0.1370E+01
      9.215  0.1063E+00  0.1379E+01
      9.307  0.9883E-01  0.1389E+01
      9.400  0.8187E-01  0.1398E+01
      9.492  0.9782E-01  0.1405E+01
      9.585  0.9349E-01  0.1415E+01
      9.678  0.6728E-01  0.1425E+01
      9.770  0.1639E+00  0.1436E+01
      9.863  0.1173E+00  0.1445E+01
      9.955  0.1022E+00  0.1456E+01
     10.048  0.8516E-01  0.1463E+01
     10.140  0.1100E+00  0.1472E+01
     10.233  0.5799E-01  0.1479E+01
     10.325  0.1335E+00  0.1489E+01
     10.418  0.8177E-01  0.1498E+01
     10.510  0.7240E-01  0.1505E+01
     10.603  0.7854E-01  0.1512E+01
     10.695  0.7970E-01  0.1519E+01
     10.788  0.8303E-01  0.1527E+01
     10.880  0.7974E-01  0.1535E+01
     10.973  0.8436E-01  0.1542E+01
     11.065  0.9134E-01  0.1550E+01
     11.158  0.9423E-01  0.1559E+01
     11.250  0.8464E-01  0.1567E+01
     11.343  0.7324E-01  0.1574E+01
     11.435  0.7371E-01  0.1581E+01
     11.528  0.7985E-01  0.1588E+01
     11.621  0.8925E-01  0.1596E+01
     11.713  0.8139E-01  0.1604E+01
     11.806  0.7391E-01  0.1611E+01
     11.898  0.7651E-01  0.1618E+01
     11.991  0.5537E-01  0.1624E+01
     12.083  0.7740E-01  0.1632E+01
     12.176  0.5622E-01  0.1638E+01
     12.268  0.5422E-01  0.1644E+01
     12.361  0.1010E+00  0.1650E+01
     12.453  0.1303E+00  0.1660E+01
     12.546  0.7511E-01  0.1668E+01
     12.638  0.7407E-01  0.1677E+01
     12.731  0.1222E+00  0.1685E+01
     12.823  0.0000E+00  0.1687E+01
     12.916  0.0000E+00  0.1687E+01
     13.008  0.0000E+00  0.1687E+01
     13.101  0.0000E+00  0.1687E+01
     13.193  0.0000E+00  0.1687E+01
     13.286  0.0000E+00  0.1687E+01
     13.378  0.0000E+00  0.1687E+01
     13.471  0.0000E+00  0.1687E+01
     13.563  0.0000E+00  0.1687E+01
     13.656  0.0000E+00  0.1687E+01
     13.749  0.0000E+00  0.1687E+01
     13.841  0.0000E+00  0.1687E+01
     13.934  0.0000E+00  0.1687E+01
     14.026  0.0000E+00  0.1687E+01
     14.119  0.0000E+00  0.1687E+01
     14.211  0.0000E+00  0.1687E+01
     14.304  0.0000E+00  0.1687E+01
     14.396  0.0000E+00  0.1687E+01
     14.489  0.0000E+00  0.1687E+01
     14.581  0.0000E+00  0.1687E+01
     14.674  0.0000E+00  0.1687E+01
     14.766  0.0000E+00  0.1687E+01
