[1651807951.248572] [c0900a-s35:60712:0]    ucp_context.c:1075 UCX  ERROR exceeded transports/devices limit (78 requested, up to 64 are supported)
 running on    1 total cores
 distrk:  each k-point on    1 cores,    1 groups
 distr:  one band on    1 cores,    1 groups
 OpenACC runtime initialized ...    1 GPUs detected
 vasp.6.2.0 18Jan21 (build Feb 25 2021 07:51:20) complex                         
 POSCAR found type information on POSCAR B C 
 POSCAR found :  2 types and     120 ions
 scaLAPACK will be used selectively (only on CPU)
 LDA part: xc-table for Pade appr. of Perdew
 -----------------------------------------------------------------------------
|                                                                             |
|           W    W    AA    RRRRR   N    N  II  N    N   GGGG   !!!           |
|           W    W   A  A   R    R  NN   N  II  NN   N  G    G  !!!           |
|           W    W  A    A  R    R  N N  N  II  N N  N  G       !!!           |
|           W WW W  AAAAAA  RRRRR   N  N N  II  N  N N  G  GGG   !            |
|           WW  WW  A    A  R   R   N   NN  II  N   NN  G    G                |
|           W    W  A    A  R    R  N    N  II  N    N   GGGG   !!!           |
|                                                                             |
|     The requested file  could not be found or opened for reading            |
|     k-point information. Automatic k-point generation is used as a          |
|     fallback, which may lead to unwanted results.                           |
|                                                                             |
 -----------------------------------------------------------------------------

 POSCAR, INCAR and KPOINTS ok, starting setup
 FFT: planning ...
 WAVECAR not read
 WARNING: random wavefunctions but no delay for mixing, default for NELMDL
 prediction of wavefunctions initialized - no I/O
 entering main loop
       N       E                     dE             d eps       ncg     rms          rms(c)
DAV:   1     0.153700934157E+04    0.15370E+04   -0.21913E+05  4048   0.179E+03
DAV:   2    -0.780496174706E+03   -0.23175E+04   -0.21835E+04  4920   0.315E+02
DAV:   3    -0.927822129099E+03   -0.14733E+03   -0.14506E+03  4888   0.704E+01
DAV:   4    -0.931428896100E+03   -0.36068E+01   -0.35852E+01  4832   0.113E+01
DAV:   5    -0.931530480462E+03   -0.10158E+00   -0.10140E+00  4808   0.180E+00    0.406E+01
RMM:   6    -0.886198427088E+03    0.45332E+02   -0.64357E+01  4048   0.117E+01    0.218E+01
RMM:   7    -0.877991869612E+03    0.82066E+01   -0.55523E+01  4048   0.113E+01    0.791E+00
RMM:   8    -0.877591092442E+03    0.40078E+00   -0.73974E+00  4048   0.452E+00    0.257E+00
RMM:   9    -0.877296585672E+03    0.29451E+00   -0.20276E+00  4048   0.225E+00    0.927E-01
RMM:  10    -0.877297520995E+03   -0.93532E-03   -0.27116E-01  4128   0.946E-01    0.665E-01
RMM:  11    -0.877287444653E+03    0.10076E-01   -0.65594E-02  4048   0.448E-01    0.130E-01
RMM:  12    -0.877289059753E+03   -0.16151E-02   -0.10156E-02  4090   0.185E-01    0.156E-01
RMM:  13    -0.877288457016E+03    0.60274E-03   -0.25444E-03  4137   0.794E-02    0.670E-02
RMM:  14    -0.877288468889E+03   -0.11873E-04   -0.20518E-03  3996   0.683E-02    0.324E-02
RMM:  15    -0.877288445310E+03    0.23579E-04   -0.17878E-04  2580   0.276E-02
    1 T=   300. E= -.87267322E+03 F= -.87728845E+03 E0= -.87728845E+03  EK= 0.46152E+01 SP= 0.00E+00 SK= 0.26E-09
 bond charge predicted
       N       E                     dE             d eps       ncg     rms          rms(c)
DAV:   1    -0.877264427847E+03    0.24041E-01   -0.22400E+00  4536   0.315E+00    0.367E-01
RMM:   2    -0.877264641693E+03   -0.21385E-03   -0.43761E-02  4048   0.439E-01    0.212E-01
RMM:   3    -0.877264009118E+03    0.63257E-03   -0.93531E-03  4048   0.181E-01    0.601E-02
RMM:   4    -0.877264097239E+03   -0.88120E-04   -0.12705E-03  4104   0.710E-02    0.356E-02
RMM:   5    -0.877264114043E+03   -0.16805E-04   -0.30820E-04  2851   0.330E-02
    2 T=   298. E= -.87267312E+03 F= -.87726411E+03 E0= -.87726411E+03  EK= 0.45910E+01 SP= 0.15E-04 SK= 0.34E-06
Information: wavefunction orthogonal band  251  0.8302
Information: wavefunction orthogonal band  252  0.8675
Information: wavefunction orthogonal band  250  0.8653
Information: wavefunction orthogonal band  252  0.8918
Information: wavefunction orthogonal band  249  0.8905
Information: wavefunction orthogonal band  253  0.8983
Information: wavefunction orthogonal band  251  0.8737
Information: wavefunction orthogonal band  252  0.8881
Information: wavefunction orthogonal band  253  0.8297
 bond charge predicted
 prediction of wavefunctions
       N       E                     dE             d eps       ncg     rms          rms(c)
DAV:   1    -0.877188549639E+03    0.75548E-01   -0.38941E-03  5673   0.559E-01    0.414E-02
RMM:   2    -0.877188821920E+03   -0.27228E-03   -0.28756E-03  4048   0.111E-01    0.173E-02
RMM:   3    -0.877188861032E+03   -0.39113E-04   -0.39713E-04  3305   0.407E-02
    3 T=   294. E= -.87267268E+03 F= -.87718886E+03 E0= -.87718886E+03  EK= 0.45167E+01 SP= -.55E-03 SK= 0.14E-04
 bond charge predicted
 prediction of wavefunctions
       N       E                     dE             d eps       ncg     rms          rms(c)
DAV:   1    -0.877064558667E+03    0.12426E+00   -0.97967E-03  5576   0.557E-01    0.317E-02
RMM:   2    -0.877064836842E+03   -0.27818E-03   -0.29142E-03  4048   0.976E-02    0.223E-02
RMM:   3    -0.877064879199E+03   -0.42357E-04   -0.41612E-04  3296   0.383E-02
    4 T=   286. E= -.87267168E+03 F= -.87706488E+03 E0= -.87706488E+03  EK= 0.43966E+01 SP= -.35E-02 SK= 0.14E-03
 bond charge predicted
 prediction of wavefunctions
       N       E                     dE             d eps       ncg     rms          rms(c)
DAV:   1    -0.876895655223E+03    0.16918E+00   -0.63610E-03  6292   0.536E-01    0.369E-02
RMM:   2    -0.876895890538E+03   -0.23531E-03   -0.27317E-03  4048   0.954E-02    0.178E-02
RMM:   3    -0.876895943040E+03   -0.52502E-04   -0.53723E-04  3712   0.433E-02
    5 T=   275. E= -.87267035E+03 F= -.87689594E+03 E0= -.87689594E+03  EK= 0.42367E+01 SP= -.12E-01 SK= 0.74E-03
Information: wavefunction orthogonal band  253  0.8940
Information: wavefunction orthogonal band  252  0.8879
 bond charge predicted
 prediction of wavefunctions
       N       E                     dE             d eps       ncg     rms          rms(c)
DAV:   1    -0.876686803621E+03    0.20909E+00   -0.50818E-03  5920   0.526E-01    0.201E-02
RMM:   2    -0.876687030280E+03   -0.22666E-03   -0.23075E-03  4048   0.860E-02    0.203E-02
RMM:   3    -0.876687070221E+03   -0.39941E-04   -0.40909E-04  3259   0.384E-02
    6 T=   263. E= -.87266891E+03 F= -.87668707E+03 E0= -.87668707E+03  EK= 0.40451E+01 SP= -.30E-01 SK= 0.27E-02
Information: wavefunction orthogonal band  252  0.8675
Information: wavefunction orthogonal band  253  0.8619
Information: wavefunction orthogonal band  252  0.8766
Information: wavefunction orthogonal band  253  0.8142
Information: wavefunction orthogonal band  251  0.8786
Information: wavefunction orthogonal band  252  0.8943
 bond charge predicted
 prediction of wavefunctions
       N       E                     dE             d eps       ncg     rms          rms(c)
DAV:   1    -0.876444062325E+03    0.24297E+00   -0.33012E-03  6340   0.507E-01    0.321E-02
RMM:   2    -0.876444244673E+03   -0.18235E-03   -0.19683E-03  4044   0.742E-02    0.234E-02
RMM:   3    -0.876444275981E+03   -0.31308E-04   -0.38790E-04  3111   0.347E-02
    7 T=   249. E= -.87266735E+03 F= -.87644428E+03 E0= -.87644428E+03  EK= 0.38307E+01 SP= -.61E-01 SK= 0.75E-02
Information: wavefunction orthogonal band  252  0.8780
Information: wavefunction orthogonal band  253  0.8725
 bond charge predicted
 prediction of wavefunctions
       N       E                     dE             d eps       ncg     rms          rms(c)
DAV:   1    -0.876174134769E+03    0.27011E+00   -0.45098E-03  6093   0.479E-01    0.619E-02
RMM:   2    -0.876174276101E+03   -0.14133E-03   -0.22754E-03  4048   0.789E-02    0.242E-02
RMM:   3    -0.876174321858E+03   -0.45757E-04   -0.47165E-04  3497   0.390E-02
    8 T=   234. E= -.87266580E+03 F= -.87617432E+03 E0= -.87617432E+03  EK= 0.36033E+01 SP= -.11E+00 SK= 0.18E-01
Information: wavefunction orthogonal band  253  0.8894
Information: wavefunction orthogonal band  253  0.8641
 bond charge predicted
 prediction of wavefunctions
       N       E                     dE             d eps       ncg     rms          rms(c)
DAV:   1    -0.875884079282E+03    0.29020E+00   -0.35574E-03  6250   0.465E-01    0.219E-02
RMM:   2    -0.875884260968E+03   -0.18169E-03   -0.19250E-03  4047   0.788E-02    0.138E-02
RMM:   3    -0.875884291820E+03   -0.30852E-04   -0.35347E-04  3021   0.348E-02
    9 T=   219. E= -.87266434E+03 F= -.87588429E+03 E0= -.87588429E+03  EK= 0.33719E+01 SP= -.19E+00 SK= 0.37E-01
Information: wavefunction orthogonal band  253  0.8852
Information: wavefunction orthogonal band  253  0.8776
 bond charge predicted
 prediction of wavefunctions
       N       E                     dE             d eps       ncg     rms          rms(c)
DAV:   1    -0.875581118560E+03    0.30314E+00   -0.43076E-03  6060   0.435E-01    0.223E-02
RMM:   2    -0.875581293772E+03   -0.17521E-03   -0.19370E-03  4043   0.741E-02    0.140E-02
RMM:   3    -0.875581329949E+03   -0.36177E-04   -0.36947E-04  3078   0.344E-02
   10 T=   204. E= -.87266308E+03 F= -.87558133E+03 E0= -.87558133E+03  EK= 0.31453E+01 SP= -.30E+00 SK= 0.68E-01
Information: wavefunction orthogonal band  252  0.8793
Information: wavefunction orthogonal band  253  0.8342
Information: wavefunction orthogonal band  251  0.8374
Information: wavefunction orthogonal band  249  0.8984
 bond charge predicted
 prediction of wavefunctions
       N       E                     dE             d eps       ncg     rms          rms(c)
DAV:   1    -0.875272230231E+03    0.30906E+00   -0.47967E-03  5762   0.417E-01    0.118E-02
RMM:   2    -0.875272423801E+03   -0.19357E-03   -0.19647E-03  4048   0.768E-02    0.970E-03
RMM:   3    -0.875272458675E+03   -0.34874E-04   -0.34562E-04  2995   0.345E-02
   11 T=   191. E= -.87266214E+03 F= -.87527246E+03 E0= -.87527246E+03  EK= 0.29313E+01 SP= -.44E+00 SK= 0.12E+00
Information: wavefunction orthogonal band  248  0.8826
Information: wavefunction orthogonal band  249  0.8916
Information: wavefunction orthogonal band  250  0.8949
Information: wavefunction orthogonal band  252  0.8670
Information: wavefunction orthogonal band  253  0.8897
 bond charge predicted
 prediction of wavefunctions
       N       E                     dE             d eps       ncg     rms          rms(c)
DAV:   1    -0.874964033423E+03    0.30839E+00   -0.33675E-03  5962   0.393E-01    0.158E-02
RMM:   2    -0.874964178149E+03   -0.14473E-03   -0.15587E-03  4029   0.675E-02    0.112E-02
RMM:   3    -0.874964205811E+03   -0.27662E-04   -0.30298E-04  2840   0.309E-02
   12 T=   178. E= -.87266153E+03 F= -.87496421E+03 E0= -.87496421E+03  EK= 0.27369E+01 SP= -.62E+00 SK= 0.19E+00
Information: wavefunction orthogonal band  253  0.8852
Information: wavefunction orthogonal band  250  0.8697
Information: wavefunction orthogonal band  253  0.8971
Information: wavefunction orthogonal band  253  0.8620
 bond charge predicted
 prediction of wavefunctions
       N       E                     dE             d eps       ncg     rms          rms(c)
DAV:   1    -0.874662396586E+03    0.30178E+00   -0.41418E-03  5844   0.367E-01    0.303E-02
RMM:   2    -0.874662533085E+03   -0.13650E-03   -0.17026E-03  4035   0.688E-02    0.818E-03
RMM:   3    -0.874662565929E+03   -0.32843E-04   -0.32883E-04  2926   0.326E-02
   13 T=   167. E= -.87266134E+03 F= -.87466257E+03 E0= -.87466257E+03  EK= 0.25682E+01 SP= -.85E+00 SK= 0.29E+00
Information: wavefunction orthogonal band  249  0.8937
Information: wavefunction orthogonal band  253  0.8947
Information: wavefunction orthogonal band  251  0.8477
Information: wavefunction orthogonal band  252  0.8930
Information: wavefunction orthogonal band  251  0.8986
Information: wavefunction orthogonal band  251  0.8711
Information: wavefunction orthogonal band  252  0.8863
Information: wavefunction orthogonal band  253  0.8638
 bond charge predicted
 prediction of wavefunctions
       N       E                     dE             d eps       ncg     rms          rms(c)
DAV:   1    -0.874372620674E+03    0.28991E+00   -0.32393E-03  5887   0.352E-01    0.123E-02
RMM:   2    -0.874372766639E+03   -0.14597E-03   -0.14980E-03  4037   0.662E-02    0.810E-03
RMM:   3    -0.874372793579E+03   -0.26940E-04   -0.27657E-04  2784   0.298E-02
   14 T=   158. E= -.87266158E+03 F= -.87437279E+03 E0= -.87437279E+03  EK= 0.24309E+01 SP= -.11E+01 SK= 0.42E+00
Information: wavefunction orthogonal band  251  0.8792
Information: wavefunction orthogonal band  253  0.8936
Information: wavefunction orthogonal band  252  0.8895
 bond charge predicted
 prediction of wavefunctions
       N       E                     dE             d eps       ncg     rms          rms(c)
DAV:   1    -0.874099186266E+03    0.27358E+00   -0.37801E-03  5710   0.331E-01    0.114E-02
RMM:   2    -0.874099312629E+03   -0.12636E-03   -0.13151E-03  4026   0.620E-02    0.637E-03
RMM:   3    -0.874099337219E+03   -0.24590E-04   -0.23991E-04  2666   0.279E-02
   15 T=   151. E= -.87266219E+03 F= -.87409934E+03 E0= -.87409934E+03  EK= 0.23303E+01 SP= -.15E+01 SK= 0.58E+00
Information: wavefunction orthogonal band  252  0.8834
Information: wavefunction orthogonal band  253  0.8568
Information: wavefunction orthogonal band  248  0.8805
Information: wavefunction orthogonal band  250  0.8489
Information: wavefunction orthogonal band  248  0.8908
 bond charge predicted
 prediction of wavefunctions
       N       E                     dE             d eps       ncg     rms          rms(c)
DAV:   1    -0.873845693830E+03    0.25362E+00   -0.32466E-03  5762   0.320E-01    0.101E-02
RMM:   2    -0.873845815002E+03   -0.12117E-03   -0.12415E-03  4028   0.610E-02    0.735E-03
RMM:   3    -0.873845837922E+03   -0.22919E-04   -0.22400E-04  2627   0.274E-02
   16 T=   148. E= -.87266316E+03 F= -.87384584E+03 E0= -.87384584E+03  EK= 0.22718E+01 SP= -.19E+01 SK= 0.77E+00
Information: wavefunction orthogonal band  253  0.8927
Information: wavefunction orthogonal band  247  0.8632
Information: wavefunction orthogonal band  251  0.8809
Information: wavefunction orthogonal band  252  0.8580
Information: wavefunction orthogonal band  249  0.8863
Information: wavefunction orthogonal band  250  0.8900
 bond charge predicted
 prediction of wavefunctions
       N       E                     dE             d eps       ncg     rms          rms(c)
DAV:   1    -0.873614889533E+03    0.23093E+00   -0.28668E-03  5739   0.313E-01    0.960E-03
RMM:   2    -0.873615002708E+03   -0.11318E-03   -0.11683E-03  4008   0.571E-02    0.778E-03
RMM:   3    -0.873615024503E+03   -0.21795E-04   -0.21541E-04  2620   0.260E-02
   17 T=   147. E= -.87266435E+03 F= -.87361502E+03 E0= -.87361502E+03  EK= 0.22613E+01 SP= -.23E+01 SK= 0.10E+01
Information: wavefunction orthogonal band  251  0.8705
Information: wavefunction orthogonal band  252  0.8409
Information: wavefunction orthogonal band  250  0.8801
 bond charge predicted
 prediction of wavefunctions
       N       E                     dE             d eps       ncg     rms          rms(c)
DAV:   1    -0.873408614966E+03    0.20639E+00   -0.33981E-03  5668   0.311E-01    0.148E-02
RMM:   2    -0.873408727350E+03   -0.11238E-03   -0.11861E-03  4018   0.590E-02    0.505E-03
RMM:   3    -0.873408750068E+03   -0.22717E-04   -0.21610E-04  2615   0.264E-02
   18 T=   150. E= -.87266565E+03 F= -.87340875E+03 E0= -.87340875E+03  EK= 0.23056E+01 SP= -.28E+01 SK= 0.13E+01
Information: wavefunction orthogonal band  248  0.8873
Information: wavefunction orthogonal band  250  0.8835
Information: wavefunction orthogonal band  253  0.8544
Information: wavefunction orthogonal band  249  0.8963
Information: wavefunction orthogonal band  250  0.8924
Information: wavefunction orthogonal band  253  0.8223
Information: wavefunction orthogonal band  251  0.8604
Information: wavefunction orthogonal band  253  0.8761
Information: wavefunction orthogonal band  253  0.8678
 bond charge predicted
 prediction of wavefunctions
       N       E                     dE             d eps       ncg     rms          rms(c)
DAV:   1    -0.873227731193E+03    0.18100E+00   -0.27795E-03  5700   0.320E-01    0.100E-02
RMM:   2    -0.873227848338E+03   -0.11714E-03   -0.11815E-03  4006   0.575E-02    0.549E-03
RMM:   3    -0.873227870180E+03   -0.21843E-04   -0.21192E-04  2613   0.260E-02
   19 T=   157. E= -.87266692E+03 F= -.87322787E+03 E0= -.87322787E+03  EK= 0.24126E+01 SP= -.34E+01 SK= 0.15E+01
Information: wavefunction orthogonal band  250  0.8514
Information: wavefunction orthogonal band  253  0.8729
Information: wavefunction orthogonal band  252  0.8857
Information: wavefunction orthogonal band  250  0.8165
 bond charge predicted
 prediction of wavefunctions
       N       E                     dE             d eps       ncg     rms          rms(c)
DAV:   1    -0.873072081991E+03    0.15577E+00   -0.30455E-03  5857   0.334E-01    0.697E-03
RMM:   2    -0.873072199303E+03   -0.11731E-03   -0.11823E-03  4011   0.579E-02    0.926E-03
RMM:   3    -0.873072220956E+03   -0.21653E-04   -0.21175E-04  2607   0.260E-02
   20 T=   168. E= -.87266801E+03 F= -.87307222E+03 E0= -.87307222E+03  EK= 0.25917E+01 SP= -.40E+01 SK= 0.18E+01
Information: wavefunction orthogonal band  251  0.8955
Information: wavefunction orthogonal band  253  0.8939
 bond charge predicted
 prediction of wavefunctions
       N       E                     dE             d eps       ncg     rms          rms(c)
DAV:   1    -0.872940387852E+03    0.13181E+00   -0.32471E-03  5834   0.356E-01    0.959E-03
RMM:   2    -0.872940511416E+03   -0.12356E-03   -0.12542E-03  4010   0.605E-02    0.130E-02
RMM:   3    -0.872940534136E+03   -0.22719E-04   -0.22118E-04  2605   0.270E-02
   21 T=   186. E= -.87266884E+03 F= -.87294053E+03 E0= -.87294053E+03  EK= 0.28535E+01 SP= -.47E+01 SK= 0.21E+01
Information: wavefunction orthogonal band  248  0.8839
Information: wavefunction orthogonal band  249  0.8978
Information: wavefunction orthogonal band  252  0.8752
Information: wavefunction orthogonal band  253  0.8885
Information: wavefunction orthogonal band  252  0.8837
Information: wavefunction orthogonal band  251  0.8936
Information: wavefunction orthogonal band  251  0.8754
Information: wavefunction orthogonal band  253  0.8911
 bond charge predicted
 prediction of wavefunctions
       N       E                     dE             d eps       ncg     rms          rms(c)
DAV:   1    -0.872830094117E+03    0.11042E+00   -0.28060E-03  5977   0.385E-01    0.127E-02
RMM:   2    -0.872830235573E+03   -0.14146E-03   -0.14583E-03  4012   0.627E-02    0.135E-02
RMM:   3    -0.872830262751E+03   -0.27179E-04   -0.26629E-04  2736   0.286E-02
   22 T=   209. E= -.87266938E+03 F= -.87283026E+03 E0= -.87283026E+03  EK= 0.32096E+01 SP= -.54E+01 SK= 0.23E+01
Information: wavefunction orthogonal band  253  0.8859
Information: wavefunction orthogonal band  250  0.8668
Information: wavefunction orthogonal band  253  0.8338
Information: wavefunction orthogonal band  253  0.8964
Information: wavefunction orthogonal band  252  0.8972
 bond charge predicted
 prediction of wavefunctions
       N       E                     dE             d eps       ncg     rms          rms(c)
DAV:   1    -0.872737265041E+03    0.92971E-01   -0.40134E-03  5935   0.423E-01    0.233E-02
RMM:   2    -0.872737425794E+03   -0.16075E-03   -0.17341E-03  4036   0.696E-02    0.647E-03
RMM:   3    -0.872737458459E+03   -0.32665E-04   -0.30881E-04  2874   0.317E-02
   23 T=   239. E= -.87266970E+03 F= -.87273746E+03 E0= -.87273746E+03  EK= 0.36717E+01 SP= -.61E+01 SK= 0.25E+01
Information: wavefunction orthogonal band  251  0.8635
Information: wavefunction orthogonal band  253  0.8594
Information: wavefunction orthogonal band  251  0.8386
 bond charge predicted
 prediction of wavefunctions
       N       E                     dE             d eps       ncg     rms          rms(c)
DAV:   1    -0.872656261722E+03    0.81164E-01   -0.39379E-03  6127   0.471E-01    0.177E-02
RMM:   2    -0.872656465870E+03   -0.20415E-03   -0.20555E-03  4041   0.751E-02    0.868E-03
RMM:   3    -0.872656501534E+03   -0.35664E-04   -0.35866E-04  3027   0.336E-02
   24 T=   276. E= -.87266994E+03 F= -.87265650E+03 E0= -.87265650E+03  EK= 0.42491E+01 SP= -.69E+01 SK= 0.26E+01
Information: wavefunction orthogonal band  248  0.8524
Information: wavefunction orthogonal band  249  0.8644
Information: wavefunction orthogonal band  250  0.8008
Information: wavefunction orthogonal band  253  0.8787
Information: wavefunction orthogonal band  252  0.8887
 bond charge predicted
 prediction of wavefunctions
       N       E                     dE             d eps       ncg     rms          rms(c)
DAV:   1    -0.872579815452E+03    0.76650E-01   -0.52835E-03  6157   0.516E-01    0.114E-02
RMM:   2    -0.872580039510E+03   -0.22406E-03   -0.22517E-03  4045   0.801E-02    0.127E-02
RMM:   3    -0.872580079735E+03   -0.40225E-04   -0.39257E-04  3152   0.357E-02
   25 T=   322. E= -.87267048E+03 F= -.87258008E+03 E0= -.87258008E+03  EK= 0.49454E+01 SP= -.77E+01 SK= 0.27E+01
Information: wavefunction orthogonal band  253  0.8964
Information: wavefunction orthogonal band  251  0.8926
Information: wavefunction orthogonal band  252  0.8861
 bond charge predicted
 prediction of wavefunctions
       N       E                     dE             d eps       ncg     rms          rms(c)
DAV:   1    -0.872498603819E+03    0.81436E-01   -0.54489E-03  6313   0.568E-01    0.169E-02
RMM:   2    -0.872498887910E+03   -0.28409E-03   -0.29056E-03  4041   0.891E-02    0.205E-02
RMM:   3    -0.872498940984E+03   -0.53074E-04   -0.52219E-04  3527   0.407E-02
   26 T=   374. E= -.87267171E+03 F= -.87249894E+03 E0= -.87249894E+03  EK= 0.57535E+01 SP= -.85E+01 SK= 0.25E+01
Information: wavefunction orthogonal band  246  0.8435
Information: wavefunction orthogonal band  251  0.8907
Information: wavefunction orthogonal band  253  0.8194
Information: wavefunction orthogonal band  248  0.8932
Information: wavefunction orthogonal band  253  0.8847
Information: wavefunction orthogonal band  253  0.8877
Information: wavefunction orthogonal band  249  0.8474
 bond charge predicted
 prediction of wavefunctions
       N       E                     dE             d eps       ncg     rms          rms(c)
DAV:   1    -0.872401750815E+03    0.97137E-01   -0.70097E-03  6209   0.620E-01    0.224E-02
RMM:   2    -0.872402082613E+03   -0.33180E-03   -0.34522E-03  4047   0.981E-02    0.176E-02
RMM:   3    -0.872402148383E+03   -0.65770E-04   -0.62957E-04  3732   0.443E-02
   27 T=   432. E= -.87267396E+03 F= -.87240215E+03 E0= -.87240215E+03  EK= 0.66497E+01 SP= -.92E+01 SK= 0.23E+01
Information: wavefunction orthogonal band  251  0.8873
Information: wavefunction orthogonal band  252  0.8915
Information: wavefunction orthogonal band  252  0.8766
Information: wavefunction orthogonal band  253  0.8657
Information: wavefunction orthogonal band  249  0.8636
Information: wavefunction orthogonal band  250  0.8883
Information: wavefunction orthogonal band  252  0.8876
 bond charge predicted
 prediction of wavefunctions
       N       E                     dE             d eps       ncg     rms          rms(c)
DAV:   1    -0.872277053980E+03    0.12503E+00   -0.80812E-03  6357   0.679E-01    0.306E-02
RMM:   2    -0.872277450160E+03   -0.39618E-03   -0.41075E-03  4048   0.108E-01    0.869E-03
RMM:   3    -0.872277525337E+03   -0.75177E-04   -0.72224E-04  3847   0.486E-02
   28 T=   493. E= -.87267734E+03 F= -.87227753E+03 E0= -.87227753E+03  EK= 0.75878E+01 SP= -.99E+01 SK= 0.19E+01
Information: wavefunction orthogonal band  253  0.8970
Information: wavefunction orthogonal band  252  0.8024
Information: wavefunction orthogonal band  253  0.8521
 bond charge predicted
 prediction of wavefunctions
       N       E                     dE             d eps       ncg     rms          rms(c)
DAV:   1    -0.872112011192E+03    0.16544E+00   -0.83344E-03  6465   0.731E-01    0.216E-02
RMM:   2    -0.872112456629E+03   -0.44544E-03   -0.44727E-03  4048   0.112E-01    0.143E-02
RMM:   3    -0.872112537658E+03   -0.81029E-04   -0.81139E-04  3891   0.505E-02
   29 T=   552. E= -.87268151E+03 F= -.87211254E+03 E0= -.87211254E+03  EK= 0.84967E+01 SP= -.11E+02 SK= 0.15E+01
Information: wavefunction orthogonal band  247  0.8886
Information: wavefunction orthogonal band  253  0.8706
Information: wavefunction orthogonal band  251  0.8589
Information: wavefunction orthogonal band  249  0.8879
 bond charge predicted
 prediction of wavefunctions
       N       E                     dE             d eps       ncg     rms          rms(c)
DAV:   1    -0.871895315078E+03    0.21714E+00   -0.10427E-02  6426   0.771E-01    0.149E-02
RMM:   2    -0.871895807035E+03   -0.49196E-03   -0.49576E-03  4048   0.118E-01    0.201E-02
RMM:   3    -0.871895898848E+03   -0.91813E-04   -0.89194E-04  3950   0.531E-02
   30 T=   604. E= -.87268567E+03 F= -.87189590E+03 E0= -.87189590E+03  EK= 0.92849E+01 SP= -.11E+02 SK= 0.97E+00
Information: wavefunction orthogonal band  248  0.8313
Information: wavefunction orthogonal band  251  0.8845
Information: wavefunction orthogonal band  253  0.8572
Information: wavefunction orthogonal band  247  0.8993
Information: wavefunction orthogonal band  252  0.8968
Information: wavefunction orthogonal band  253  0.8836
 bond charge predicted
 prediction of wavefunctions
       N       E                     dE             d eps       ncg     rms          rms(c)
DAV:   1    -0.871618708521E+03    0.27710E+00   -0.10133E-02  6476   0.805E-01    0.204E-02
RMM:   2    -0.871619263044E+03   -0.55452E-03   -0.55980E-03  4048   0.123E-01    0.272E-02
RMM:   3    -0.871619368127E+03   -0.10508E-03   -0.10199E-03  4009   0.567E-02    0.271E-02
RMM:   4    -0.871619382541E+03   -0.14414E-04   -0.19062E-04  2597   0.237E-02
   31 T=   641. E= -.87268856E+03 F= -.87161938E+03 E0= -.87161938E+03  EK= 0.98545E+01 SP= -.11E+02 SK= 0.53E+00
Information: wavefunction orthogonal band  251  0.8966
Information: wavefunction orthogonal band  252  0.8840
Information: wavefunction orthogonal band  253  0.8960
Information: wavefunction orthogonal band  248  0.8981
Information: wavefunction orthogonal band  249  0.8956
Information: wavefunction orthogonal band  253  0.8706
Information: wavefunction orthogonal band  250  0.8592
 bond charge predicted
 prediction of wavefunctions
       N       E                     dE             d eps       ncg     rms          rms(c)
DAV:   1    -0.871279325761E+03    0.34004E+00   -0.11723E-02  6481   0.809E-01    0.955E-02
RMM:   2    -0.871279614094E+03   -0.28833E-03   -0.57512E-03  4049   0.123E-01    0.403E-02
RMM:   3    -0.871279712867E+03   -0.98774E-04   -0.13767E-03  4097   0.621E-02    0.120E-02
RMM:   4    -0.871279729305E+03   -0.16438E-04   -0.21351E-04  2627   0.263E-02
   32 T=   658. E= -.87268880E+03 F= -.87127973E+03 E0= -.87127973E+03  EK= 0.10123E+02 SP= -.12E+02 SK= 0.20E+00
Information: wavefunction orthogonal band  253  0.8948
Information: wavefunction orthogonal band  253  0.8976
Information: wavefunction orthogonal band  251  0.8746
Information: wavefunction orthogonal band  248  0.8971
Information: wavefunction orthogonal band  250  0.8771
 bond charge predicted
 prediction of wavefunctions
       N       E                     dE             d eps       ncg     rms          rms(c)
DAV:   1    -0.870879505332E+03    0.40021E+00   -0.10459E-02  6575   0.844E-01    0.429E-02
RMM:   2    -0.870880010472E+03   -0.50514E-03   -0.54448E-03  4048   0.121E-01    0.317E-02
RMM:   3    -0.870880064587E+03   -0.54115E-04   -0.85162E-04  4002   0.524E-02
   33 T=   653. E= -.87268556E+03 F= -.87088006E+03 E0= -.87088006E+03  EK= 0.10045E+02 SP= -.12E+02 SK= 0.27E-01
Information: wavefunction orthogonal band  249  0.8980
Information: wavefunction orthogonal band  249  0.8991
 bond charge predicted
 prediction of wavefunctions
       N       E                     dE             d eps       ncg     rms          rms(c)
DAV:   1    -0.870429634849E+03    0.45038E+00   -0.13381E-02  6159   0.808E-01    0.440E-02
RMM:   2    -0.870430142231E+03   -0.50738E-03   -0.59095E-03  4048   0.136E-01    0.220E-02
RMM:   3    -0.870430243696E+03   -0.10146E-03   -0.11429E-03  4037   0.611E-02    0.104E-02
RMM:   4    -0.870430265290E+03   -0.21594E-04   -0.21936E-04  2623   0.265E-02
   34 T=   626. E= -.87267920E+03 F= -.87043027E+03 E0= -.87043027E+03  EK= 0.96291E+01 SP= -.12E+02 SK= 0.11E-01
Information: wavefunction orthogonal band  250  0.8957
Information: wavefunction orthogonal band  251  0.8872
Information: wavefunction orthogonal band  253  0.8393
 bond charge predicted
 prediction of wavefunctions
       N       E                     dE             d eps       ncg     rms          rms(c)
DAV:   1    -0.869945427357E+03    0.48482E+00   -0.11463E-02  6351   0.799E-01    0.210E-02
RMM:   2    -0.869946045059E+03   -0.61770E-03   -0.62546E-03  4048   0.126E-01    0.250E-02
RMM:   3    -0.869946129257E+03   -0.84198E-04   -0.91555E-04  4026   0.558E-02
   35 T=   581. E= -.87267084E+03 F= -.86994613E+03 E0= -.86994613E+03  EK= 0.89314E+01 SP= -.12E+02 SK= 0.12E+00
Information: wavefunction orthogonal band  253  0.8818
Information: wavefunction orthogonal band  253  0.8442
Information: wavefunction orthogonal band  252  0.8923
Information: wavefunction orthogonal band  253  0.8832
Information: wavefunction orthogonal band  251  0.8716
 bond charge predicted
 prediction of wavefunctions
       N       E                     dE             d eps       ncg     rms          rms(c)
DAV:   1    -0.869446758907E+03    0.49929E+00   -0.11435E-02  6247   0.763E-01    0.561E-02
RMM:   2    -0.869447174546E+03   -0.41564E-03   -0.55282E-03  4050   0.129E-01    0.322E-02
RMM:   3    -0.869447260055E+03   -0.85508E-04   -0.11384E-03  4093   0.587E-02    0.107E-02
RMM:   4    -0.869447279529E+03   -0.19474E-04   -0.20108E-04  2587   0.250E-02
   36 T=   523. E= -.87266186E+03 F= -.86944728E+03 E0= -.86944728E+03  EK= 0.80436E+01 SP= -.12E+02 SK= 0.30E+00
Information: wavefunction orthogonal band  252  0.8742
Information: wavefunction orthogonal band  253  0.8655
Information: wavefunction orthogonal band  251  0.7923
Information: wavefunction orthogonal band  251  0.8775
Information: wavefunction orthogonal band  253  0.8844
Information: wavefunction orthogonal band  248  0.8973
 bond charge predicted
 prediction of wavefunctions
       N       E                     dE             d eps       ncg     rms          rms(c)
DAV:   1    -0.868954570740E+03    0.49269E+00   -0.93573E-03  6273   0.696E-01    0.887E-02
RMM:   2    -0.868954807263E+03   -0.23652E-03   -0.55746E-03  4048   0.119E-01    0.226E-02
RMM:   3    -0.868954906482E+03   -0.99219E-04   -0.11434E-03  4105   0.586E-02    0.859E-03
RMM:   4    -0.868954920770E+03   -0.14288E-04   -0.17525E-04  2555   0.237E-02
   37 T=   459. E= -.87265358E+03 F= -.86895492E+03 E0= -.86895492E+03  EK= 0.70674E+01 SP= -.11E+02 SK= 0.49E+00
Information: wavefunction orthogonal band  249  0.8679
Information: wavefunction orthogonal band  251  0.8955
Information: wavefunction orthogonal band  247  0.8930
 bond charge predicted
 prediction of wavefunctions
       N       E                     dE             d eps       ncg     rms          rms(c)
DAV:   1    -0.868488854708E+03    0.46605E+00   -0.79618E-03  6168   0.655E-01    0.223E-02
RMM:   2    -0.868489198327E+03   -0.34362E-03   -0.35065E-03  4048   0.105E-01    0.115E-02
RMM:   3    -0.868489257034E+03   -0.58708E-04   -0.58477E-04  3747   0.440E-02
   38 T=   396. E= -.87264657E+03 F= -.86848926E+03 E0= -.86848926E+03  EK= 0.60939E+01 SP= -.11E+02 SK= 0.64E+00
Information: wavefunction orthogonal band  250  0.8337
Information: wavefunction orthogonal band  253  0.8865
Information: wavefunction orthogonal band  252  0.8926
 bond charge predicted
 prediction of wavefunctions
       N       E                     dE             d eps       ncg     rms          rms(c)
DAV:   1    -0.868067499643E+03    0.42170E+00   -0.71560E-03  6164   0.601E-01    0.126E-02
RMM:   2    -0.868067840473E+03   -0.34083E-03   -0.34316E-03  4048   0.104E-01    0.181E-02
RMM:   3    -0.868067904352E+03   -0.63879E-04   -0.62921E-04  3768   0.457E-02
   39 T=   338. E= -.87264105E+03 F= -.86806790E+03 E0= -.86806790E+03  EK= 0.51919E+01 SP= -.10E+02 SK= 0.73E+00
Information: wavefunction orthogonal band  247  0.8913
Information: wavefunction orthogonal band  248  0.8682
Information: wavefunction orthogonal band  253  0.8984
Information: wavefunction orthogonal band  251  0.8912
Information: wavefunction orthogonal band  253  0.8737
Information: wavefunction orthogonal band  249  0.8551
Information: wavefunction orthogonal band  253  0.8403
 bond charge predicted
 prediction of wavefunctions
       N       E                     dE             d eps       ncg     rms          rms(c)
DAV:   1    -0.867704415771E+03    0.36342E+00   -0.66526E-03  5999   0.548E-01    0.213E-02
RMM:   2    -0.867704723209E+03   -0.30744E-03   -0.31371E-03  4052   0.933E-02    0.263E-02
RMM:   3    -0.867704783622E+03   -0.60413E-04   -0.56642E-04  3551   0.419E-02
   40 T=   286. E= -.87263683E+03 F= -.86770478E+03 E0= -.86770478E+03  EK= 0.44042E+01 SP= -.10E+02 SK= 0.74E+00
Information: wavefunction orthogonal band  251  0.8410
Information: wavefunction orthogonal band  253  0.8841
Information: wavefunction orthogonal band  253  0.8922
Information: wavefunction orthogonal band  250  0.8697
Information: wavefunction orthogonal band  250  0.8972
 bond charge predicted
 prediction of wavefunctions
       N       E                     dE             d eps       ncg     rms          rms(c)
DAV:   1    -0.867409530024E+03    0.29519E+00   -0.57181E-03  6020   0.501E-01    0.220E-02
RMM:   2    -0.867409758718E+03   -0.22869E-03   -0.23527E-03  4048   0.834E-02    0.243E-02
RMM:   3    -0.867409803890E+03   -0.45172E-04   -0.43613E-04  3234   0.371E-02
   41 T=   244. E= -.87263353E+03 F= -.86740980E+03 E0= -.86740980E+03  EK= 0.37521E+01 SP= -.97E+01 SK= 0.69E+00
Information: wavefunction orthogonal band  253  0.8067
Information: wavefunction orthogonal band  253  0.8807
Information: wavefunction orthogonal band  252  0.8643
 bond charge predicted
 prediction of wavefunctions
       N       E                     dE             d eps       ncg     rms          rms(c)
DAV:   1    -0.867188841145E+03    0.22092E+00   -0.44619E-03  6148   0.463E-01    0.265E-02
RMM:   2    -0.867189036155E+03   -0.19501E-03   -0.20600E-03  4043   0.772E-02    0.252E-02
RMM:   3    -0.867189067775E+03   -0.31620E-04   -0.36953E-04  3072   0.343E-02
   42 T=   211. E= -.87263087E+03 F= -.86718907E+03 E0= -.86718907E+03  EK= 0.32405E+01 SP= -.93E+01 SK= 0.60E+00
Information: wavefunction orthogonal band  252  0.8948
Information: wavefunction orthogonal band  253  0.8953
Information: wavefunction orthogonal band  251  0.8633
 bond charge predicted
 prediction of wavefunctions
       N       E                     dE             d eps       ncg     rms          rms(c)
DAV:   1    -0.867045314670E+03    0.14372E+00   -0.51532E-03  6177   0.418E-01    0.999E-02
RMM:   2    -0.867045272043E+03    0.42627E-04   -0.20743E-03  4045   0.805E-02    0.432E-02
RMM:   3    -0.867045309128E+03   -0.37085E-04   -0.76298E-04  3830   0.456E-02
   43 T=   186. E= -.87262874E+03 F= -.86704531E+03 E0= -.86704531E+03  EK= 0.28646E+01 SP= -.89E+01 SK= 0.48E+00
Information: wavefunction orthogonal band  247  0.8960
Information: wavefunction orthogonal band  249  0.8467
Information: wavefunction orthogonal band  253  0.8758
Information: wavefunction orthogonal band  249  0.8630
 bond charge predicted
 prediction of wavefunctions
       N       E                     dE             d eps       ncg     rms          rms(c)
DAV:   1    -0.866978392024E+03    0.66880E-01   -0.38489E-03  6049   0.423E-01    0.465E-02
RMM:   2    -0.866978451570E+03   -0.59546E-04   -0.18100E-03  4045   0.784E-02    0.292E-02
RMM:   3    -0.866978449312E+03    0.22571E-05   -0.43452E-04  3333   0.352E-02
   44 T=   170. E= -.87262707E+03 F= -.86697845E+03 E0= -.86697845E+03  EK= 0.26146E+01 SP= -.86E+01 SK= 0.36E+00
Information: wavefunction orthogonal band  249  0.8823
Information: wavefunction orthogonal band  252  0.8882
Information: wavefunction orthogonal band  252  0.8980
Information: wavefunction orthogonal band  251  0.8794
 bond charge predicted
 prediction of wavefunctions
       N       E                     dE             d eps       ncg     rms          rms(c)
DAV:   1    -0.866985994075E+03   -0.75425E-02   -0.41159E-03  6071   0.393E-01    0.437E-02
RMM:   2    -0.866986085864E+03   -0.91790E-04   -0.18127E-03  4048   0.737E-02    0.203E-02
RMM:   3    -0.866986117089E+03   -0.31224E-04   -0.33162E-04  2965   0.328E-02
   45 T=   161. E= -.87262592E+03 F= -.86698612E+03 E0= -.86698612E+03  EK= 0.24788E+01 SP= -.84E+01 SK= 0.24E+00
Information: wavefunction orthogonal band  250  0.8799
Information: wavefunction orthogonal band  248  0.8812
Information: wavefunction orthogonal band  249  0.8833
Information: wavefunction orthogonal band  253  0.8640
Information: wavefunction orthogonal band  251  0.8875
Information: wavefunction orthogonal band  252  0.8897
Information: wavefunction orthogonal band  253  0.8963
 bond charge predicted
 prediction of wavefunctions
       N       E                     dE             d eps       ncg     rms          rms(c)
DAV:   1    -0.867063894092E+03   -0.77808E-01   -0.24784E-03  6121   0.400E-01    0.157E-02
RMM:   2    -0.867064033358E+03   -0.13927E-03   -0.14545E-03  4051   0.679E-02    0.604E-03
RMM:   3    -0.867064059271E+03   -0.25913E-04   -0.25192E-04  2680   0.282E-02
   46 T=   159. E= -.87262534E+03 F= -.86706406E+03 E0= -.86706406E+03  EK= 0.24459E+01 SP= -.82E+01 SK= 0.14E+00
Information: wavefunction orthogonal band  251  0.8734
Information: wavefunction orthogonal band  253  0.8189
Information: wavefunction orthogonal band  250  0.8721
Information: wavefunction orthogonal band  250  0.8919
Information: wavefunction orthogonal band  252  0.8922
 bond charge predicted
 prediction of wavefunctions
       N       E                     dE             d eps       ncg     rms          rms(c)
DAV:   1    -0.867206388243E+03   -0.14235E+00   -0.25711E-03  5988   0.406E-01    0.149E-02
RMM:   2    -0.867206510091E+03   -0.12185E-03   -0.12319E-03  4030   0.589E-02    0.833E-03
RMM:   3    -0.867206532626E+03   -0.22536E-04   -0.22160E-04  2617   0.265E-02
   47 T=   163. E= -.87262534E+03 F= -.86720653E+03 E0= -.86720653E+03  EK= 0.25054E+01 SP= -.80E+01 SK= 0.72E-01
Information: wavefunction orthogonal band  246  0.8911
Information: wavefunction orthogonal band  253  0.8920
Information: wavefunction orthogonal band  253  0.8776
 bond charge predicted
 prediction of wavefunctions
       N       E                     dE             d eps       ncg     rms          rms(c)
DAV:   1    -0.867406411567E+03   -0.19990E+00   -0.21682E-03  6260   0.421E-01    0.138E-02
RMM:   2    -0.867406524569E+03   -0.11300E-03   -0.11757E-03  4008   0.575E-02    0.683E-03
RMM:   3    -0.867406547609E+03   -0.23040E-04   -0.22458E-04  2625   0.263E-02
   48 T=   172. E= -.87262597E+03 F= -.86740655E+03 E0= -.86740655E+03  EK= 0.26479E+01 SP= -.79E+01 SK= 0.27E-01
Information: wavefunction orthogonal band  251  0.8943
Information: wavefunction orthogonal band  250  0.8706
Information: wavefunction orthogonal band  252  0.8959
Information: wavefunction orthogonal band  253  0.8636
 bond charge predicted
 prediction of wavefunctions
       N       E                     dE             d eps       ncg     rms          rms(c)
DAV:   1    -0.867655939080E+03   -0.24941E+00   -0.23802E-03  6007   0.447E-01    0.114E-02
RMM:   2    -0.867656063261E+03   -0.12418E-03   -0.12710E-03  3999   0.593E-02    0.782E-03
RMM:   3    -0.867656086637E+03   -0.23376E-04   -0.23017E-04  2628   0.271E-02
   49 T=   186. E= -.87262720E+03 F= -.86765609E+03 E0= -.86765609E+03  EK= 0.28645E+01 SP= -.78E+01 SK= 0.45E-02
Information: wavefunction orthogonal band  251  0.8998
 bond charge predicted
 prediction of wavefunctions
       N       E                     dE             d eps       ncg     rms          rms(c)
DAV:   1    -0.867946066493E+03   -0.29000E+00   -0.22471E-03  6313   0.475E-01    0.104E-02
RMM:   2    -0.867946197727E+03   -0.13123E-03   -0.13285E-03  4013   0.604E-02    0.102E-02
RMM:   3    -0.867946222943E+03   -0.25216E-04   -0.24907E-04  2706   0.276E-02
   50 T=   205. E= -.87262898E+03 F= -.86794622E+03 E0= -.86794622E+03  EK= 0.31467E+01 SP= -.78E+01 SK= 0.26E-03
Information: wavefunction orthogonal band  252  0.8890
Information: wavefunction orthogonal band  253  0.8528
Information: wavefunction orthogonal band  253  0.8934
 bond charge predicted
 prediction of wavefunctions
       N       E                     dE             d eps       ncg     rms          rms(c)
DAV:   1    -0.868267043536E+03   -0.32085E+00   -0.28220E-03  6279   0.504E-01    0.132E-02
RMM:   2    -0.868267188583E+03   -0.14505E-03   -0.14949E-03  4011   0.634E-02    0.928E-03
RMM:   3    -0.868267216698E+03   -0.28115E-04   -0.27200E-04  2768   0.292E-02
   51 T=   227. E= -.87263124E+03 F= -.86826722E+03 E0= -.86826722E+03  EK= 0.34845E+01 SP= -.79E+01 SK= 0.69E-02
Information: wavefunction orthogonal band  253  0.8709
 bond charge predicted
 prediction of wavefunctions
       N       E                     dE             d eps       ncg     rms          rms(c)
DAV:   1    -0.868608585500E+03   -0.34140E+00   -0.29346E-03  6407   0.538E-01    0.151E-02
RMM:   2    -0.868608754425E+03   -0.16892E-03   -0.17305E-03  4028   0.687E-02    0.735E-03
RMM:   3    -0.868608787895E+03   -0.33471E-04   -0.32170E-04  2926   0.316E-02
   52 T=   251. E= -.87263389E+03 F= -.86860879E+03 E0= -.86860879E+03  EK= 0.38667E+01 SP= -.79E+01 SK= 0.17E-01
Information: wavefunction orthogonal band  253  0.8776
Information: wavefunction orthogonal band  251  0.8764
Information: wavefunction orthogonal band  250  0.8725
 bond charge predicted
 prediction of wavefunctions
       N       E                     dE             d eps       ncg     rms          rms(c)
DAV:   1    -0.868960014254E+03   -0.35126E+00   -0.35021E-03  6413   0.572E-01    0.104E-02
RMM:   2    -0.868960205469E+03   -0.19122E-03   -0.19178E-03  4030   0.719E-02    0.876E-03
RMM:   3    -0.868960240696E+03   -0.35226E-04   -0.34311E-04  2997   0.329E-02
   53 T=   278. E= -.87263685E+03 F= -.86896024E+03 E0= -.86896024E+03  EK= 0.42791E+01 SP= -.80E+01 SK= 0.26E-01
Information: wavefunction orthogonal band  252  0.8784
Information: wavefunction orthogonal band  253  0.8645
Information: wavefunction orthogonal band  250  0.8902
Information: wavefunction orthogonal band  252  0.8892
Information: wavefunction orthogonal band  250  0.8732
 bond charge predicted
 prediction of wavefunctions
       N       E                     dE             d eps       ncg     rms          rms(c)
DAV:   1    -0.869310431118E+03   -0.35023E+00   -0.31905E-03  6686   0.603E-01    0.748E-03
RMM:   2    -0.869310664124E+03   -0.23301E-03   -0.23355E-03  4043   0.750E-02    0.126E-02
RMM:   3    -0.869310709915E+03   -0.45791E-04   -0.44668E-04  3226   0.355E-02
   54 T=   306. E= -.87264002E+03 F= -.86931071E+03 E0= -.86931071E+03  EK= 0.47047E+01 SP= -.81E+01 SK= 0.28E-01
Information: wavefunction orthogonal band  252  0.8905
Information: wavefunction orthogonal band  253  0.8528
 bond charge predicted
 prediction of wavefunctions
       N       E                     dE             d eps       ncg     rms          rms(c)
DAV:   1    -0.869649263351E+03   -0.33860E+00   -0.59092E-03  6354   0.632E-01    0.119E-02
RMM:   2    -0.869649533153E+03   -0.26980E-03   -0.27153E-03  4047   0.853E-02    0.169E-02
RMM:   3    -0.869649582889E+03   -0.49736E-04   -0.47722E-04  3361   0.388E-02
   55 T=   333. E= -.87264326E+03 F= -.86964958E+03 E0= -.86964958E+03  EK= 0.51235E+01 SP= -.81E+01 SK= 0.23E-01
Information: wavefunction orthogonal band  250  0.8915
Information: wavefunction orthogonal band  253  0.8820
Information: wavefunction orthogonal band  253  0.8839
 bond charge predicted
 prediction of wavefunctions
       N       E                     dE             d eps       ncg     rms          rms(c)
DAV:   1    -0.869966585869E+03   -0.31705E+00   -0.54033E-03  6601   0.660E-01    0.134E-02
RMM:   2    -0.869966889199E+03   -0.30333E-03   -0.30509E-03  4046   0.906E-02    0.176E-02
RMM:   3    -0.869966948971E+03   -0.59772E-04   -0.57296E-04  3564   0.418E-02
   56 T=   358. E= -.87264640E+03 F= -.86996695E+03 E0= -.86996695E+03  EK= 0.55130E+01 SP= -.82E+01 SK= 0.13E-01
Information: wavefunction orthogonal band  250  0.8409
Information: wavefunction orthogonal band  253  0.8866
Information: wavefunction orthogonal band  252  0.8068
 bond charge predicted
 prediction of wavefunctions
       N       E                     dE             d eps       ncg     rms          rms(c)
DAV:   1    -0.870253635964E+03   -0.28675E+00   -0.70758E-03  6437   0.681E-01    0.214E-02
RMM:   2    -0.870253966941E+03   -0.33098E-03   -0.34315E-03  4048   0.956E-02    0.129E-02
RMM:   3    -0.870254032379E+03   -0.65438E-04   -0.62087E-04  3633   0.440E-02
   57 T=   380. E= -.87264924E+03 F= -.87025403E+03 E0= -.87025403E+03  EK= 0.58503E+01 SP= -.82E+01 SK= 0.35E-02
Information: wavefunction orthogonal band  248  0.8650
Information: wavefunction orthogonal band  252  0.8877
Information: wavefunction orthogonal band  253  0.8843
Information: wavefunction orthogonal band  253  0.8420
 bond charge predicted
 prediction of wavefunctions
       N       E                     dE             d eps       ncg     rms          rms(c)
DAV:   1    -0.870503215265E+03   -0.24925E+00   -0.66867E-03  6500   0.701E-01    0.280E-02
RMM:   2    -0.870503600152E+03   -0.38489E-03   -0.39372E-03  4049   0.100E-01    0.722E-03
RMM:   3    -0.870503674333E+03   -0.74181E-04   -0.71576E-04  3768   0.469E-02
   58 T=   397. E= -.87265156E+03 F= -.87050367E+03 E0= -.87050367E+03  EK= 0.61140E+01 SP= -.83E+01 SK= 0.13E-03
Information: wavefunction orthogonal band  251  0.8563
Information: wavefunction orthogonal band  253  0.8818
Information: wavefunction orthogonal band  252  0.8846
Information: wavefunction orthogonal band  253  0.8634
Information: wavefunction orthogonal band  253  0.8903
Information: wavefunction orthogonal band  248  0.8866
Information: wavefunction orthogonal band  251  0.8854
 bond charge predicted
 prediction of wavefunctions
       N       E                     dE             d eps       ncg     rms          rms(c)
DAV:   1    -0.870710317448E+03   -0.20672E+00   -0.78187E-03  6391   0.712E-01    0.170E-02
RMM:   2    -0.870710745298E+03   -0.42785E-03   -0.42896E-03  4050   0.104E-01    0.113E-02
RMM:   3    -0.870710822924E+03   -0.77625E-04   -0.76293E-04  3805   0.484E-02
   59 T=   409. E= -.87265322E+03 F= -.87071082E+03 E0= -.87071082E+03  EK= 0.62870E+01 SP= -.82E+01 SK= 0.88E-02
Information: wavefunction orthogonal band  246  0.8973
Information: wavefunction orthogonal band  252  0.8841
Information: wavefunction orthogonal band  249  0.8927
Information: wavefunction orthogonal band  252  0.8855
Information: wavefunction orthogonal band  252  0.8541
Information: wavefunction orthogonal band  253  0.8580
 bond charge predicted
 prediction of wavefunctions
       N       E                     dE             d eps       ncg     rms          rms(c)
DAV:   1    -0.870872301253E+03   -0.16156E+00   -0.74708E-03  6486   0.716E-01    0.129E-02
RMM:   2    -0.870872712770E+03   -0.41152E-03   -0.41348E-03  4050   0.103E-01    0.183E-02
RMM:   3    -0.870872794490E+03   -0.81720E-04   -0.77866E-04  3841   0.484E-02
   60 T=   413. E= -.87265411E+03 F= -.87087279E+03 E0= -.87087279E+03  EK= 0.63585E+01 SP= -.82E+01 SK= 0.33E-01
Information: wavefunction orthogonal band  253  0.8897
Information: wavefunction orthogonal band  253  0.8461
Information: wavefunction orthogonal band  250  0.8821
Information: wavefunction orthogonal band  252  0.8743
 bond charge predicted
 prediction of wavefunctions
       N       E                     dE             d eps       ncg     rms          rms(c)
DAV:   1    -0.870988877452E+03   -0.11616E+00   -0.88742E-03  6279   0.714E-01    0.246E-02
RMM:   2    -0.870989283390E+03   -0.40594E-03   -0.41108E-03  4047   0.105E-01    0.261E-02
RMM:   3    -0.870989360187E+03   -0.76798E-04   -0.74142E-04  3791   0.485E-02
   61 T=   411. E= -.87265421E+03 F= -.87098936E+03 E0= -.87098936E+03  EK= 0.63263E+01 SP= -.81E+01 SK= 0.74E-01
Information: wavefunction orthogonal band  250  0.8509
 bond charge predicted
 prediction of wavefunctions
       N       E                     dE             d eps       ncg     rms          rms(c)
DAV:   1    -0.871062186242E+03   -0.72903E-01   -0.70177E-03  6495   0.705E-01    0.243E-02
RMM:   2    -0.871062572498E+03   -0.38626E-03   -0.38961E-03  4048   0.104E-01    0.267E-02
RMM:   3    -0.871062650061E+03   -0.77562E-04   -0.74174E-04  3804   0.482E-02
   62 T=   403. E= -.87265354E+03 F= -.87106265E+03 E0= -.87106265E+03  EK= 0.61965E+01 SP= -.79E+01 SK= 0.13E+00
Information: wavefunction orthogonal band  252  0.8824
 bond charge predicted
 prediction of wavefunctions
       N       E                     dE             d eps       ncg     rms          rms(c)
DAV:   1    -0.871096389717E+03   -0.33817E-01   -0.88762E-03  6226   0.689E-01    0.156E-02
RMM:   2    -0.871096784431E+03   -0.39471E-03   -0.39807E-03  4047   0.106E-01    0.192E-02
RMM:   3    -0.871096858138E+03   -0.73707E-04   -0.71142E-04  3766   0.480E-02
   63 T=   389. E= -.87265225E+03 F= -.87109686E+03 E0= -.87109686E+03  EK= 0.59824E+01 SP= -.77E+01 SK= 0.19E+00
Information: wavefunction orthogonal band  247  0.8832
Information: wavefunction orthogonal band  250  0.8630
Information: wavefunction orthogonal band  253  0.8073
Information: wavefunction orthogonal band  251  0.8838
Information: wavefunction orthogonal band  253  0.8955
Information: wavefunction orthogonal band  251  0.8987
Information: wavefunction orthogonal band  253  0.8835
 bond charge predicted
 prediction of wavefunctions
       N       E                     dE             d eps       ncg     rms          rms(c)
DAV:   1    -0.871097363063E+03   -0.57863E-03   -0.65680E-03  6494   0.667E-01    0.295E-02
RMM:   2    -0.871097758499E+03   -0.39544E-03   -0.40319E-03  4050   0.103E-01    0.206E-02
RMM:   3    -0.871097833252E+03   -0.74753E-04   -0.74992E-04  3844   0.483E-02
   64 T=   371. E= -.87265051E+03 F= -.87109783E+03 E0= -.87109783E+03  EK= 0.57032E+01 SP= -.75E+01 SK= 0.25E+00
Information: wavefunction orthogonal band  253  0.8691
Information: wavefunction orthogonal band  253  0.8844
Information: wavefunction orthogonal band  248  0.8686
Information: wavefunction orthogonal band  253  0.8928
Information: wavefunction orthogonal band  253  0.8581
 bond charge predicted
 prediction of wavefunctions
       N       E                     dE             d eps       ncg     rms          rms(c)
DAV:   1    -0.871072217975E+03    0.25541E-01   -0.88978E-03  6146   0.631E-01    0.613E-02
RMM:   2    -0.871072536854E+03   -0.31888E-03   -0.41555E-03  4050   0.107E-01    0.191E-02
RMM:   3    -0.871072618916E+03   -0.82062E-04   -0.83774E-04  3965   0.515E-02
   65 T=   350. E= -.87264855E+03 F= -.87107262E+03 E0= -.87107262E+03  EK= 0.53803E+01 SP= -.73E+01 SK= 0.30E+00
Information: wavefunction orthogonal band  248  0.8750
Information: wavefunction orthogonal band  250  0.8536
Information: wavefunction orthogonal band  248  0.8807
Information: wavefunction orthogonal band  252  0.8996
Information: wavefunction orthogonal band  250  0.8882
Information: wavefunction orthogonal band  252  0.8314
 bond charge predicted
 prediction of wavefunctions
       N       E                     dE             d eps       ncg     rms          rms(c)
DAV:   1    -0.871028459036E+03    0.44078E-01   -0.63916E-03  6510   0.621E-01    0.235E-02
RMM:   2    -0.871028826055E+03   -0.36702E-03   -0.37790E-03  4050   0.103E-01    0.217E-02
RMM:   3    -0.871028889158E+03   -0.63103E-04   -0.69395E-04  3792   0.473E-02
   66 T=   327. E= -.87264645E+03 F= -.87102889E+03 E0= -.87102889E+03  EK= 0.50358E+01 SP= -.70E+01 SK= 0.33E+00
Information: wavefunction orthogonal band  252  0.8977
Information: wavefunction orthogonal band  252  0.8948
Information: wavefunction orthogonal band  250  0.8768
 bond charge predicted
 prediction of wavefunctions
       N       E                     dE             d eps       ncg     rms          rms(c)
DAV:   1    -0.870974249586E+03    0.54576E-01   -0.75003E-03  6280   0.574E-01    0.163E-02
RMM:   2    -0.870974534322E+03   -0.28474E-03   -0.29168E-03  4049   0.937E-02    0.164E-02
RMM:   3    -0.870974589090E+03   -0.54768E-04   -0.53189E-04  3518   0.420E-02
   67 T=   305. E= -.87264431E+03 F= -.87097459E+03 E0= -.87097459E+03  EK= 0.46899E+01 SP= -.67E+01 SK= 0.34E+00
Information: wavefunction orthogonal band  253  0.8827
Information: wavefunction orthogonal band  251  0.8871
 bond charge predicted
 prediction of wavefunctions
       N       E                     dE             d eps       ncg     rms          rms(c)
DAV:   1    -0.870917287001E+03    0.57247E-01   -0.50946E-03  6334   0.546E-01    0.338E-02
RMM:   2    -0.870917580891E+03   -0.29389E-03   -0.34294E-03  4053   0.963E-02    0.147E-02
RMM:   3    -0.870917641141E+03   -0.60250E-04   -0.59506E-04  3743   0.451E-02
   68 T=   283. E= -.87264229E+03 F= -.87091764E+03 E0= -.87091764E+03  EK= 0.43596E+01 SP= -.64E+01 SK= 0.34E+00
Information: wavefunction orthogonal band  252  0.8782
Information: wavefunction orthogonal band  253  0.8589
Information: wavefunction orthogonal band  251  0.8967
Information: wavefunction orthogonal band  253  0.8603
 bond charge predicted
 prediction of wavefunctions
       N       E                     dE             d eps       ncg     rms          rms(c)
DAV:   1    -0.870865224124E+03    0.52357E-01   -0.62907E-03  6018   0.520E-01    0.195E-02
RMM:   2    -0.870865489199E+03   -0.26507E-03   -0.27106E-03  4048   0.898E-02    0.119E-02
RMM:   3    -0.870865536727E+03   -0.47528E-04   -0.47646E-04  3380   0.397E-02
   69 T=   264. E= -.87264034E+03 F= -.87086554E+03 E0= -.87086554E+03  EK= 0.40589E+01 SP= -.61E+01 SK= 0.31E+00
Information: wavefunction orthogonal band  249  0.8833
Information: wavefunction orthogonal band  250  0.8727
Information: wavefunction orthogonal band  252  0.8659
Information: wavefunction orthogonal band  253  0.8874
Information: wavefunction orthogonal band  251  0.8039
Information: wavefunction orthogonal band  253  0.8999
 bond charge predicted
 prediction of wavefunctions
       N       E                     dE             d eps       ncg     rms          rms(c)
DAV:   1    -0.870824959711E+03    0.40529E-01   -0.46352E-03  5990   0.481E-01    0.275E-02
RMM:   2    -0.870825197853E+03   -0.23814E-03   -0.25846E-03  4048   0.843E-02    0.669E-03
RMM:   3    -0.870825247826E+03   -0.49974E-04   -0.48367E-04  3423   0.392E-02
   70 T=   247. E= -.87263856E+03 F= -.87082525E+03 E0= -.87082525E+03  EK= 0.37982E+01 SP= -.59E+01 SK= 0.28E+00
Information: wavefunction orthogonal band  251  0.8857
Information: wavefunction orthogonal band  253  0.8671
Information: wavefunction orthogonal band  250  0.8925
Information: wavefunction orthogonal band  251  0.8565
Information: wavefunction orthogonal band  252  0.8945
Information: wavefunction orthogonal band  250  0.8801
Information: wavefunction orthogonal band  252  0.8941
Information: wavefunction orthogonal band  252  0.8429
 bond charge predicted
 prediction of wavefunctions
       N       E                     dE             d eps       ncg     rms          rms(c)
DAV:   1    -0.870802804591E+03    0.22393E-01   -0.50169E-03  5948   0.460E-01    0.135E-02
RMM:   2    -0.870803029086E+03   -0.22449E-03   -0.22623E-03  4046   0.812E-02    0.116E-02
RMM:   3    -0.870803068532E+03   -0.39447E-04   -0.39610E-04  3191   0.366E-02
   71 T=   233. E= -.87263697E+03 F= -.87080307E+03 E0= -.87080307E+03  EK= 0.35847E+01 SP= -.56E+01 SK= 0.23E+00
 bond charge predicted
 prediction of wavefunctions
       N       E                     dE             d eps       ncg     rms          rms(c)
DAV:   1    -0.870804259401E+03   -0.12303E-02   -0.41888E-03  5946   0.435E-01    0.150E-02
RMM:   2    -0.870804430127E+03   -0.17073E-03   -0.17690E-03  4042   0.731E-02    0.177E-02
RMM:   3    -0.870804462310E+03   -0.32183E-04   -0.32522E-04  2944   0.326E-02
   72 T=   223. E= -.87263562E+03 F= -.87080446E+03 E0= -.87080446E+03  EK= 0.34236E+01 SP= -.54E+01 SK= 0.18E+00
Information: wavefunction orthogonal band  253  0.8844
Information: wavefunction orthogonal band  253  0.8512
 bond charge predicted
 prediction of wavefunctions
       N       E                     dE             d eps       ncg     rms          rms(c)
DAV:   1    -0.870833768199E+03   -0.29338E-01   -0.39953E-03  5970   0.410E-01    0.185E-02
RMM:   2    -0.870833924515E+03   -0.15632E-03   -0.17006E-03  4035   0.704E-02    0.153E-02
RMM:   3    -0.870833955590E+03   -0.31075E-04   -0.30890E-04  2889   0.320E-02
   73 T=   216. E= -.87263458E+03 F= -.87083396E+03 E0= -.87083396E+03  EK= 0.33181E+01 SP= -.52E+01 SK= 0.13E+00
Information: wavefunction orthogonal band  252  0.8967
Information: wavefunction orthogonal band  252  0.8942
Information: wavefunction orthogonal band  250  0.8866
Information: wavefunction orthogonal band  253  0.8589
Information: wavefunction orthogonal band  250  0.8720
Information: wavefunction orthogonal band  253  0.8536
Information: wavefunction orthogonal band  251  0.8968
 bond charge predicted
 prediction of wavefunctions
       N       E                     dE             d eps       ncg     rms          rms(c)
DAV:   1    -0.870894832684E+03   -0.60908E-01   -0.30144E-03  6014   0.399E-01    0.288E-02
RMM:   2    -0.870894997568E+03   -0.16488E-03   -0.18293E-03  4021   0.692E-02    0.632E-03
RMM:   3    -0.870895032852E+03   -0.35284E-04   -0.34072E-04  2984   0.326E-02
   74 T=   213. E= -.87263388E+03 F= -.87089503E+03 E0= -.87089503E+03  EK= 0.32697E+01 SP= -.51E+01 SK= 0.83E-01
Information: wavefunction orthogonal band  247  0.8940
Information: wavefunction orthogonal band  249  0.8830
Information: wavefunction orthogonal band  253  0.8503
Information: wavefunction orthogonal band  253  0.8394
Information: wavefunction orthogonal band  251  0.8927
 bond charge predicted
 prediction of wavefunctions
       N       E                     dE             d eps       ncg     rms          rms(c)
DAV:   1    -0.870989833709E+03   -0.94836E-01   -0.37945E-03  5841   0.396E-01    0.182E-02
RMM:   2    -0.870989981626E+03   -0.14792E-03   -0.15162E-03  4018   0.657E-02    0.980E-03
RMM:   3    -0.870990006288E+03   -0.24662E-04   -0.26349E-04  2744   0.292E-02
   75 T=   213. E= -.87263356E+03 F= -.87099001E+03 E0= -.87099001E+03  EK= 0.32793E+01 SP= -.50E+01 SK= 0.48E-01
Information: wavefunction orthogonal band  249  0.8802
Information: wavefunction orthogonal band  252  0.8926
Information: wavefunction orthogonal band  253  0.8495
Information: wavefunction orthogonal band  249  0.8971
Information: wavefunction orthogonal band  253  0.8865
 bond charge predicted
 prediction of wavefunctions
       N       E                     dE             d eps       ncg     rms          rms(c)
DAV:   1    -0.871119704975E+03   -0.12972E+00   -0.35505E-03  5964   0.389E-01    0.197E-02
RMM:   2    -0.871119831251E+03   -0.12628E-03   -0.14277E-03  4013   0.648E-02    0.886E-03
RMM:   3    -0.871119858107E+03   -0.26856E-04   -0.27141E-04  2749   0.296E-02
   76 T=   218. E= -.87263368E+03 F= -.87111986E+03 E0= -.87111986E+03  EK= 0.33460E+01 SP= -.49E+01 SK= 0.23E-01
Information: wavefunction orthogonal band  253  0.8683
 bond charge predicted
 prediction of wavefunctions
       N       E                     dE             d eps       ncg     rms          rms(c)
DAV:   1    -0.871283923229E+03   -0.16409E+00   -0.34154E-03  5938   0.403E-01    0.935E-03
RMM:   2    -0.871284074278E+03   -0.15105E-03   -0.15239E-03  4018   0.664E-02    0.107E-02
RMM:   3    -0.871284100745E+03   -0.26467E-04   -0.26469E-04  2739   0.298E-02
   77 T=   225. E= -.87263426E+03 F= -.87128410E+03 E0= -.87128410E+03  EK= 0.34682E+01 SP= -.48E+01 SK= 0.78E-02
Information: wavefunction orthogonal band  253  0.8896
Information: wavefunction orthogonal band  252  0.8986
Information: wavefunction orthogonal band  250  0.8954
Information: wavefunction orthogonal band  252  0.8985
 bond charge predicted
 prediction of wavefunctions
       N       E                     dE             d eps       ncg     rms          rms(c)
DAV:   1    -0.871480456643E+03   -0.19638E+00   -0.32367E-03  6081   0.416E-01    0.168E-02
RMM:   2    -0.871480593165E+03   -0.13652E-03   -0.14749E-03  4020   0.631E-02    0.140E-02
RMM:   3    -0.871480618395E+03   -0.25230E-04   -0.27354E-04  2777   0.290E-02
   78 T=   237. E= -.87263526E+03 F= -.87148062E+03 E0= -.87148062E+03  EK= 0.36422E+01 SP= -.48E+01 SK= 0.11E-02
Information: wavefunction orthogonal band  253  0.8516
Information: wavefunction orthogonal band  253  0.8697
Information: wavefunction orthogonal band  252  0.8651
Information: wavefunction orthogonal band  253  0.8835
Information: wavefunction orthogonal band  251  0.8703
 bond charge predicted
 prediction of wavefunctions
       N       E                     dE             d eps       ncg     rms          rms(c)
DAV:   1    -0.871705499924E+03   -0.22491E+00   -0.40000E-03  6004   0.432E-01    0.310E-02
RMM:   2    -0.871705639210E+03   -0.13929E-03   -0.17491E-03  4028   0.686E-02    0.830E-03
RMM:   3    -0.871705673154E+03   -0.33944E-04   -0.33703E-04  2988   0.323E-02
   79 T=   251. E= -.87263670E+03 F= -.87170567E+03 E0= -.87170567E+03  EK= 0.38627E+01 SP= -.48E+01 SK= 0.12E-03
Information: wavefunction orthogonal band  252  0.8719
Information: wavefunction orthogonal band  250  0.8908
Information: wavefunction orthogonal band  250  0.8562
Information: wavefunction orthogonal band  251  0.8920
Information: wavefunction orthogonal band  253  0.8609
Information: wavefunction orthogonal band  252  0.8908
 bond charge predicted
 prediction of wavefunctions
       N       E                     dE             d eps       ncg     rms          rms(c)
DAV:   1    -0.871953722633E+03   -0.24808E+00   -0.35762E-03  6127   0.461E-01    0.136E-02
RMM:   2    -0.871953892292E+03   -0.16966E-03   -0.17305E-03  4022   0.702E-02    0.900E-03
RMM:   3    -0.871953922573E+03   -0.30281E-04   -0.30675E-04  2892   0.315E-02
   80 T=   268. E= -.87263853E+03 F= -.87195392E+03 E0= -.87195392E+03  EK= 0.41218E+01 SP= -.48E+01 SK= 0.18E-02
Information: wavefunction orthogonal band  249  0.8522
Information: wavefunction orthogonal band  251  0.8868
Information: wavefunction orthogonal band  253  0.8934
 bond charge predicted
 prediction of wavefunctions
       N       E                     dE             d eps       ncg     rms          rms(c)
DAV:   1    -0.872218303027E+03   -0.26441E+00   -0.35721E-03  6298   0.482E-01    0.988E-03
RMM:   2    -0.872218467722E+03   -0.16470E-03   -0.16715E-03  4028   0.679E-02    0.743E-03
RMM:   3    -0.872218499578E+03   -0.31855E-04   -0.30659E-04  2896   0.310E-02
   81 T=   287. E= -.87264067E+03 F= -.87221850E+03 E0= -.87221850E+03  EK= 0.44089E+01 SP= -.48E+01 SK= 0.37E-02
Information: wavefunction orthogonal band  252  0.8968
Information: wavefunction orthogonal band  253  0.8749
 bond charge predicted
 prediction of wavefunctions
       N       E                     dE             d eps       ncg     rms          rms(c)
DAV:   1    -0.872490993520E+03   -0.27253E+00   -0.37601E-03  6167   0.511E-01    0.161E-02
RMM:   2    -0.872491180061E+03   -0.18654E-03   -0.19379E-03  4035   0.721E-02    0.968E-03
RMM:   3    -0.872491216144E+03   -0.36083E-04   -0.34796E-04  3016   0.332E-02
   82 T=   306. E= -.87264306E+03 F= -.87249122E+03 E0= -.87249122E+03  EK= 0.47106E+01 SP= -.49E+01 SK= 0.41E-02
Information: wavefunction orthogonal band  250  0.8794
Information: wavefunction orthogonal band  252  0.8909
Information: wavefunction orthogonal band  251  0.8178
Information: wavefunction orthogonal band  253  0.8793
Information: wavefunction orthogonal band  249  0.8767
 bond charge predicted
 prediction of wavefunctions
       N       E                     dE             d eps       ncg     rms          rms(c)
DAV:   1    -0.872762674895E+03   -0.27149E+00   -0.40635E-03  6452   0.539E-01    0.117E-02
RMM:   2    -0.872762897847E+03   -0.22295E-03   -0.22568E-03  4039   0.758E-02    0.750E-03
RMM:   3    -0.872762940933E+03   -0.43087E-04   -0.41463E-04  3185   0.353E-02
   83 T=   326. E= -.87264556E+03 F= -.87276294E+03 E0= -.87276294E+03  EK= 0.50105E+01 SP= -.49E+01 SK= 0.26E-02
Information: wavefunction orthogonal band  253  0.8883
Information: wavefunction orthogonal band  252  0.8970
Information: wavefunction orthogonal band  252  0.8788
Information: wavefunction orthogonal band  253  0.8620
 bond charge predicted
 prediction of wavefunctions
       N       E                     dE             d eps       ncg     rms          rms(c)
DAV:   1    -0.873023829164E+03   -0.26093E+00   -0.52894E-03  6209   0.565E-01    0.116E-02
RMM:   2    -0.873024077485E+03   -0.24832E-03   -0.25059E-03  4044   0.819E-02    0.954E-03
RMM:   3    -0.873024124392E+03   -0.46907E-04   -0.45199E-04  3289   0.375E-02
   84 T=   344. E= -.87264800E+03 F= -.87302412E+03 E0= -.87302412E+03  EK= 0.52909E+01 SP= -.49E+01 SK= 0.55E-03
Information: wavefunction orthogonal band  248  0.8871
Information: wavefunction orthogonal band  253  0.8607
Information: wavefunction orthogonal band  248  0.8527
 bond charge predicted
 prediction of wavefunctions
       N       E                     dE             d eps       ncg     rms          rms(c)
DAV:   1    -0.873265057697E+03   -0.24098E+00   -0.53773E-03  6402   0.589E-01    0.827E-03
RMM:   2    -0.873265316527E+03   -0.25883E-03   -0.25918E-03  4047   0.848E-02    0.121E-02
RMM:   3    -0.873265365065E+03   -0.48538E-04   -0.46643E-04  3321   0.386E-02
   85 T=   360. E= -.87265025E+03 F= -.87326537E+03 E0= -.87326537E+03  EK= 0.55329E+01 SP= -.49E+01 SK= 0.32E-03
Information: wavefunction orthogonal band  246  0.8663
Information: wavefunction orthogonal band  252  0.8970
Information: wavefunction orthogonal band  252  0.8719
Information: wavefunction orthogonal band  253  0.8855
 bond charge predicted
 prediction of wavefunctions
       N       E                     dE             d eps       ncg     rms          rms(c)
DAV:   1    -0.873477777446E+03   -0.21246E+00   -0.45777E-03  6433   0.607E-01    0.758E-03
RMM:   2    -0.873478042189E+03   -0.26474E-03   -0.26521E-03  4043   0.834E-02    0.155E-02
RMM:   3    -0.873478094037E+03   -0.51848E-04   -0.49802E-04  3393   0.389E-02
   86 T=   372. E= -.87265214E+03 F= -.87347809E+03 E0= -.87347809E+03  EK= 0.57194E+01 SP= -.49E+01 SK= 0.49E-02
Information: wavefunction orthogonal band  251  0.8914
Information: wavefunction orthogonal band  253  0.8553
 bond charge predicted
 prediction of wavefunctions
       N       E                     dE             d eps       ncg     rms          rms(c)
DAV:   1    -0.873654835991E+03   -0.17679E+00   -0.58974E-03  6354   0.620E-01    0.117E-02
RMM:   2    -0.873655125188E+03   -0.28920E-03   -0.29065E-03  4046   0.883E-02    0.187E-02
RMM:   3    -0.873655180378E+03   -0.55189E-04   -0.52529E-04  3455   0.406E-02
   87 T=   379. E= -.87265351E+03 F= -.87365518E+03 E0= -.87365518E+03  EK= 0.58360E+01 SP= -.49E+01 SK= 0.17E-01
Information: wavefunction orthogonal band  252  0.8951
Information: wavefunction orthogonal band  250  0.8740
Information: wavefunction orthogonal band  253  0.8599
Information: wavefunction orthogonal band  252  0.8961
 bond charge predicted
 prediction of wavefunctions
       N       E                     dE             d eps       ncg     rms          rms(c)
DAV:   1    -0.873791185815E+03   -0.13606E+00   -0.50463E-03  6409   0.629E-01    0.146E-02
RMM:   2    -0.873791478233E+03   -0.29242E-03   -0.29397E-03  4046   0.884E-02    0.207E-02
RMM:   3    -0.873791535981E+03   -0.57748E-04   -0.55087E-04  3535   0.412E-02
   88 T=   382. E= -.87265429E+03 F= -.87379154E+03 E0= -.87379154E+03  EK= 0.58735E+01 SP= -.48E+01 SK= 0.38E-01
Information: wavefunction orthogonal band  252  0.8915
Information: wavefunction orthogonal band  253  0.8423
Information: wavefunction orthogonal band  252  0.8986
Information: wavefunction orthogonal band  252  0.8740
Information: wavefunction orthogonal band  253  0.8912
 bond charge predicted
 prediction of wavefunctions
       N       E                     dE             d eps       ncg     rms          rms(c)
DAV:   1    -0.873884013108E+03   -0.92535E-01   -0.61774E-03  6284   0.632E-01    0.172E-02
RMM:   2    -0.873884327462E+03   -0.31435E-03   -0.31759E-03  4046   0.918E-02    0.212E-02
RMM:   3    -0.873884387259E+03   -0.59797E-04   -0.57909E-04  3589   0.425E-02
   89 T=   379. E= -.87265439E+03 F= -.87388439E+03 E0= -.87388439E+03  EK= 0.58291E+01 SP= -.47E+01 SK= 0.67E-01
Information: wavefunction orthogonal band  253  0.8608
Information: wavefunction orthogonal band  253  0.8980
Information: wavefunction orthogonal band  249  0.8665
Information: wavefunction orthogonal band  248  0.8872
Information: wavefunction orthogonal band  250  0.8978
 bond charge predicted
 prediction of wavefunctions
       N       E                     dE             d eps       ncg     rms          rms(c)
DAV:   1    -0.873933194907E+03   -0.48867E-01   -0.52822E-03  6513   0.625E-01    0.286E-02
RMM:   2    -0.873933465071E+03   -0.27016E-03   -0.29255E-03  4049   0.896E-02    0.123E-02
RMM:   3    -0.873933522913E+03   -0.57842E-04   -0.56261E-04  3590   0.420E-02
   90 T=   371. E= -.87265384E+03 F= -.87393352E+03 E0= -.87393352E+03  EK= 0.57063E+01 SP= -.45E+01 SK= 0.10E+00
Information: wavefunction orthogonal band  250  0.8810
 bond charge predicted
 prediction of wavefunctions
       N       E                     dE             d eps       ncg     rms          rms(c)
DAV:   1    -0.873940812688E+03   -0.73476E-02   -0.54927E-03  6399   0.624E-01    0.317E-02
RMM:   2    -0.873941104359E+03   -0.29167E-03   -0.29971E-03  4046   0.902E-02    0.110E-02
RMM:   3    -0.873941154662E+03   -0.50303E-04   -0.51693E-04  3469   0.412E-02
   91 T=   359. E= -.87265266E+03 F= -.87394115E+03 E0= -.87394115E+03  EK= 0.55146E+01 SP= -.44E+01 SK= 0.14E+00
Information: wavefunction orthogonal band  248  0.8834
Information: wavefunction orthogonal band  250  0.8816
Information: wavefunction orthogonal band  252  0.8763
Information: wavefunction orthogonal band  252  0.8994
Information: wavefunction orthogonal band  253  0.8795
 bond charge predicted
 prediction of wavefunctions
       N       E                     dE             d eps       ncg     rms          rms(c)
DAV:   1    -0.873911358902E+03    0.29745E-01   -0.48116E-03  6407   0.600E-01    0.168E-02
RMM:   2    -0.873911625227E+03   -0.26633E-03   -0.27172E-03  4045   0.863E-02    0.851E-03
RMM:   3    -0.873911677439E+03   -0.52212E-04   -0.50871E-04  3390   0.398E-02
   92 T=   342. E= -.87265104E+03 F= -.87391168E+03 E0= -.87391168E+03  EK= 0.52683E+01 SP= -.42E+01 SK= 0.17E+00
 bond charge predicted
 prediction of wavefunctions
       N       E                     dE             d eps       ncg     rms          rms(c)
DAV:   1    -0.873850832742E+03    0.60792E-01   -0.52501E-03  6268   0.585E-01    0.169E-02
RMM:   2    -0.873851116098E+03   -0.28336E-03   -0.29051E-03  4046   0.875E-02    0.171E-02
RMM:   3    -0.873851168078E+03   -0.51980E-04   -0.51516E-04  3445   0.407E-02
   93 T=   324. E= -.87264917E+03 F= -.87385117E+03 E0= -.87385117E+03  EK= 0.49840E+01 SP= -.40E+01 SK= 0.19E+00
Information: wavefunction orthogonal band  253  0.8758
Information: wavefunction orthogonal band  247  0.8677
Information: wavefunction orthogonal band  253  0.8996
Information: wavefunction orthogonal band  253  0.8990
Information: wavefunction orthogonal band  249  0.8573
Information: wavefunction orthogonal band  253  0.8348
 bond charge predicted
 prediction of wavefunctions
       N       E                     dE             d eps       ncg     rms          rms(c)
DAV:   1    -0.873766530395E+03    0.84586E-01   -0.50528E-03  6345   0.562E-01    0.129E-02
RMM:   2    -0.873766786487E+03   -0.25609E-03   -0.25706E-03  4046   0.850E-02    0.149E-02
RMM:   3    -0.873766835368E+03   -0.48881E-04   -0.46717E-04  3358   0.387E-02
   94 T=   304. E= -.87264713E+03 F= -.87376684E+03 E0= -.87376684E+03  EK= 0.46795E+01 SP= -.38E+01 SK= 0.20E+00
Information: wavefunction orthogonal band  252  0.8988
Information: wavefunction orthogonal band  250  0.8979
Information: wavefunction orthogonal band  253  0.8675
Information: wavefunction orthogonal band  251  0.8949
Information: wavefunction orthogonal band  251  0.8926
Information: wavefunction orthogonal band  252  0.8842
Information: wavefunction orthogonal band  253  0.8987
Information: wavefunction orthogonal band  250  0.8954
 bond charge predicted
 prediction of wavefunctions
       N       E                     dE             d eps       ncg     rms          rms(c)
DAV:   1    -0.873666209389E+03    0.10058E+00   -0.40443E-03  6417   0.537E-01    0.212E-02
RMM:   2    -0.873666450452E+03   -0.24106E-03   -0.25582E-03  4045   0.812E-02    0.109E-02
RMM:   3    -0.873666498965E+03   -0.48513E-04   -0.47131E-04  3388   0.385E-02
   95 T=   284. E= -.87264503E+03 F= -.87366650E+03 E0= -.87366650E+03  EK= 0.43714E+01 SP= -.35E+01 SK= 0.20E+00
Information: wavefunction orthogonal band  251  0.8854
 bond charge predicted
 prediction of wavefunctions
       N       E                     dE             d eps       ncg     rms          rms(c)
DAV:   1    -0.873557816253E+03    0.10863E+00   -0.49414E-03  6175   0.512E-01    0.197E-02
RMM:   2    -0.873558042463E+03   -0.22621E-03   -0.22795E-03  4044   0.805E-02    0.740E-03
RMM:   3    -0.873558084761E+03   -0.42298E-04   -0.41294E-04  3168   0.366E-02
   96 T=   265. E= -.87264296E+03 F= -.87355808E+03 E0= -.87355808E+03  EK= 0.40746E+01 SP= -.33E+01 SK= 0.18E+00
Information: wavefunction orthogonal band  246  0.8817
Information: wavefunction orthogonal band  249  0.8933
 bond charge predicted
 prediction of wavefunctions
       N       E                     dE             d eps       ncg     rms          rms(c)
DAV:   1    -0.873448988870E+03    0.10905E+00   -0.38902E-03  6108   0.485E-01    0.136E-02
RMM:   2    -0.873449190791E+03   -0.20192E-03   -0.20298E-03  4043   0.756E-02    0.755E-03
RMM:   3    -0.873449229242E+03   -0.38451E-04   -0.37513E-04  3088   0.347E-02
   97 T=   247. E= -.87264100E+03 F= -.87344923E+03 E0= -.87344923E+03  EK= 0.38013E+01 SP= -.31E+01 SK= 0.15E+00
Information: wavefunction orthogonal band  253  0.8664
Information: wavefunction orthogonal band  252  0.8895
Information: wavefunction orthogonal band  253  0.8769
Information: wavefunction orthogonal band  252  0.8579
Information: wavefunction orthogonal band  253  0.8413
Information: wavefunction orthogonal band  252  0.8771
 bond charge predicted
 prediction of wavefunctions
       N       E                     dE             d eps       ncg     rms          rms(c)
DAV:   1    -0.873346696320E+03    0.10249E+00   -0.38076E-03  6175   0.460E-01    0.849E-03
RMM:   2    -0.873346895892E+03   -0.19957E-03   -0.19996E-03  4038   0.725E-02    0.133E-02
RMM:   3    -0.873346934175E+03   -0.38284E-04   -0.36840E-04  3053   0.339E-02
   98 T=   232. E= -.87263925E+03 F= -.87334693E+03 E0= -.87334693E+03  EK= 0.35612E+01 SP= -.30E+01 SK= 0.11E+00
Information: wavefunction orthogonal band  247  0.8965
Information: wavefunction orthogonal band  250  0.8982
Information: wavefunction orthogonal band  252  0.8868
Information: wavefunction orthogonal band  250  0.8929
Information: wavefunction orthogonal band  251  0.8889
Information: wavefunction orthogonal band  251  0.8947
Information: wavefunction orthogonal band  252  0.8945
 bond charge predicted
 prediction of wavefunctions
       N       E                     dE             d eps       ncg     rms          rms(c)
DAV:   1    -0.873257182843E+03    0.89713E-01   -0.36342E-03  6105   0.437E-01    0.192E-02
RMM:   2    -0.873257354452E+03   -0.17161E-03   -0.17750E-03  4037   0.694E-02    0.196E-02
RMM:   3    -0.873257385222E+03   -0.30771E-04   -0.32367E-04  2928   0.319E-02
   99 T=   219. E= -.87263773E+03 F= -.87325739E+03 E0= -.87325739E+03  EK= 0.33613E+01 SP= -.28E+01 SK= 0.78E-01
Information: wavefunction orthogonal band  248  0.8926
Information: wavefunction orthogonal band  248  0.8986
Information: wavefunction orthogonal band  253  0.8537
Information: wavefunction orthogonal band  250  0.8980
Information: wavefunction orthogonal band  252  0.8698
Information: wavefunction orthogonal band  253  0.8453
 bond charge predicted
 prediction of wavefunctions
       N       E                     dE             d eps       ncg     rms          rms(c)
DAV:   1    -0.873185660555E+03    0.71694E-01   -0.33634E-03  6068   0.411E-01    0.489E-02
RMM:   2    -0.873185763417E+03   -0.10286E-03   -0.16867E-03  4036   0.685E-02    0.193E-02
RMM:   3    -0.873185794682E+03   -0.31266E-04   -0.40590E-04  3253   0.347E-02
  100 T=   208. E= -.87263651E+03 F= -.87318579E+03 E0= -.87318579E+03  EK= 0.32068E+01 SP= -.27E+01 SK= 0.44E-01
 bond charge predicted
 prediction of wavefunctions
       N       E                     dE             d eps       ncg     rms          rms(c)
DAV:   1    -0.873136170262E+03    0.49593E-01   -0.37811E-03  5956   0.406E-01    0.195E-02
RMM:   2    -0.873136324856E+03   -0.15459E-03   -0.16903E-03  4040   0.715E-02    0.168E-02
RMM:   3    -0.873136343913E+03   -0.19057E-04   -0.27849E-04  2783   0.311E-02
  101 T=   202. E= -.87263563E+03 F= -.87313634E+03 E0= -.87313634E+03  EK= 0.31013E+01 SP= -.26E+01 SK= 0.18E-01
Information: wavefunction orthogonal band  253  0.8545
Information: wavefunction orthogonal band  250  0.8619
Information: wavefunction orthogonal band  251  0.8916
Information: wavefunction orthogonal band  252  0.8764
Information: wavefunction orthogonal band  253  0.8763
 bond charge predicted
 prediction of wavefunctions
       N       E                     dE             d eps       ncg     rms          rms(c)
DAV:   1    -0.873111965144E+03    0.24360E-01   -0.36099E-03  6034   0.381E-01    0.270E-02
RMM:   2    -0.873112068150E+03   -0.10301E-03   -0.13919E-03  4036   0.658E-02    0.155E-02
RMM:   3    -0.873112087698E+03   -0.19547E-04   -0.29278E-04  2830   0.305E-02
  102 T=   198. E= -.87263512E+03 F= -.87311209E+03 E0= -.87311209E+03  EK= 0.30470E+01 SP= -.26E+01 SK= 0.30E-02
Information: wavefunction orthogonal band  252  0.8802
Information: wavefunction orthogonal band  253  0.8883
Information: wavefunction orthogonal band  250  0.7609
Information: wavefunction orthogonal band  253  0.8730
 bond charge predicted
 prediction of wavefunctions
       N       E                     dE             d eps       ncg     rms          rms(c)
[...]
Information: wavefunction orthogonal band  248  0.8673
Information: wavefunction orthogonal band  247  0.8959
Information: wavefunction orthogonal band  252  0.8940
Information: wavefunction orthogonal band  253  0.8893
Information: wavefunction orthogonal band  253  0.8821
 bond charge predicted
 prediction of wavefunctions
       N       E                     dE             d eps       ncg     rms          rms(c)
DAV:   1    -0.873606507064E+03    0.90003E-01   -0.66441E-03  6063   0.471E-01    0.175E-02
RMM:   2    -0.873606749204E+03   -0.24214E-03   -0.24727E-03  4046   0.866E-02    0.118E-02
RMM:   3    -0.873606790712E+03   -0.41508E-04   -0.42921E-04  3264   0.375E-02
  275 T=   269. E= -.87263903E+03 F= -.87360679E+03 E0= -.87360679E+03  EK= 0.41454E+01 SP= -.32E+01 SK= 0.22E-01
Information: wavefunction orthogonal band  250  0.8584
Information: wavefunction orthogonal band  253  0.8778
Information: wavefunction orthogonal band  252  0.8689
Information: wavefunction orthogonal band  251  0.8435
Information: wavefunction orthogonal band  253  0.8886
Information: wavefunction orthogonal band  250  0.8993
Information: wavefunction orthogonal band  250  0.8736
Information: wavefunction orthogonal band  253  0.8501
Information: wavefunction orthogonal band  253  0.8209
 bond charge predicted
 prediction of wavefunctions
       N       E                     dE             d eps       ncg     rms          rms(c)
DAV:   1    -0.873526313241E+03    0.80436E-01   -0.54348E-03  6118   0.452E-01    0.115E-02
RMM:   2    -0.873526536609E+03   -0.22337E-03   -0.22678E-03  4041   0.784E-02    0.103E-02
RMM:   3    -0.873526579959E+03   -0.43350E-04   -0.42082E-04  3231   0.356E-02
  276 T=   261. E= -.87263807E+03 F= -.87352658E+03 E0= -.87352658E+03  EK= 0.40082E+01 SP= -.31E+01 SK= 0.15E-01
Information: wavefunction orthogonal band  253  0.8969
Information: wavefunction orthogonal band  251  0.8864
 bond charge predicted
 prediction of wavefunctions
       N       E                     dE             d eps       ncg     rms          rms(c)
DAV:   1    -0.873457888534E+03    0.68648E-01   -0.61304E-03  5967   0.443E-01    0.200E-02
RMM:   2    -0.873458098161E+03   -0.20963E-03   -0.22376E-03  4040   0.800E-02    0.118E-02
RMM:   3    -0.873458138742E+03   -0.40581E-04   -0.39310E-04  3178   0.359E-02
  277 T=   253. E= -.87263733E+03 F= -.87345814E+03 E0= -.87345814E+03  EK= 0.38971E+01 SP= -.31E+01 SK= 0.76E-02
Information: wavefunction orthogonal band  251  0.8982
Information: wavefunction orthogonal band  252  0.8715
Information: wavefunction orthogonal band  249  0.8649
Information: wavefunction orthogonal band  248  0.8570
 bond charge predicted
 prediction of wavefunctions
       N       E                     dE             d eps       ncg     rms          rms(c)
DAV:   1    -0.873402854895E+03    0.55243E-01   -0.47270E-03  6060   0.436E-01    0.125E-02
RMM:   2    -0.873403041456E+03   -0.18656E-03   -0.18936E-03  4036   0.747E-02    0.761E-03
RMM:   3    -0.873403077375E+03   -0.35919E-04   -0.34865E-04  3011   0.330E-02
  278 T=   248. E= -.87263677E+03 F= -.87340308E+03 E0= -.87340308E+03  EK= 0.38152E+01 SP= -.31E+01 SK= 0.23E-02
Information: wavefunction orthogonal band  253  0.8838
Information: wavefunction orthogonal band  248  0.8710
Information: wavefunction orthogonal band  253  0.8655
Information: wavefunction orthogonal band  253  0.8919
 bond charge predicted
 prediction of wavefunctions
       N       E                     dE             d eps       ncg     rms          rms(c)
DAV:   1    -0.873362146366E+03    0.40895E-01   -0.47449E-03  5951   0.430E-01    0.129E-02
RMM:   2    -0.873362328985E+03   -0.18262E-03   -0.18546E-03  4036   0.726E-02    0.798E-03
RMM:   3    -0.873362363134E+03   -0.34149E-04   -0.33266E-04  2955   0.325E-02
  279 T=   245. E= -.87263644E+03 F= -.87336236E+03 E0= -.87336236E+03  EK= 0.37640E+01 SP= -.30E+01 SK= 0.28E-04
Information: wavefunction orthogonal band  252  0.8834
Information: wavefunction orthogonal band  251  0.8956
Information: wavefunction orthogonal band  253  0.8697
Information: wavefunction orthogonal band  252  0.8756
 bond charge predicted
 prediction of wavefunctions
       N       E                     dE             d eps       ncg     rms          rms(c)
DAV:   1    -0.873336107770E+03    0.26221E-01   -0.42273E-03  6044   0.428E-01    0.849E-03
RMM:   2    -0.873336278143E+03   -0.17037E-03   -0.17112E-03  4020   0.697E-02    0.958E-03
RMM:   3    -0.873336310296E+03   -0.32154E-04   -0.31381E-04  2909   0.312E-02
  280 T=   243. E= -.87263635E+03 F= -.87333631E+03 E0= -.87333631E+03  EK= 0.37445E+01 SP= -.30E+01 SK= 0.15E-02
Information: wavefunction orthogonal band  250  0.8478
Information: wavefunction orthogonal band  253  0.8935
Information: wavefunction orthogonal band  249  0.8531
Information: wavefunction orthogonal band  252  0.8514
 bond charge predicted
 prediction of wavefunctions
       N       E                     dE             d eps       ncg     rms          rms(c)
DAV:   1    -0.873324339308E+03    0.11939E-01   -0.45479E-03  5951   0.430E-01    0.774E-03
RMM:   2    -0.873324504647E+03   -0.16534E-03   -0.16672E-03  4035   0.692E-02    0.116E-02
RMM:   3    -0.873324535421E+03   -0.30774E-04   -0.29900E-04  2858   0.308E-02
  281 T=   244. E= -.87263651E+03 F= -.87332454E+03 E0= -.87332454E+03  EK= 0.37565E+01 SP= -.31E+01 SK= 0.70E-02
Information: wavefunction orthogonal band  252  0.8776
Information: wavefunction orthogonal band  251  0.8971
Information: wavefunction orthogonal band  253  0.8869
 bond charge predicted
 prediction of wavefunctions
       N       E                     dE             d eps       ncg     rms          rms(c)
DAV:   1    -0.873325738688E+03   -0.12340E-02   -0.44142E-03  6005   0.435E-01    0.107E-02
RMM:   2    -0.873325910950E+03   -0.17226E-03   -0.17435E-03  4026   0.704E-02    0.116E-02
RMM:   3    -0.873325943983E+03   -0.33033E-04   -0.32044E-04  2917   0.315E-02
  282 T=   247. E= -.87263689E+03 F= -.87332594E+03 E0= -.87332594E+03  EK= 0.37991E+01 SP= -.31E+01 SK= 0.16E-01
Information: wavefunction orthogonal band  253  0.8602
Information: wavefunction orthogonal band  252  0.8943
 bond charge predicted
 prediction of wavefunctions
       N       E                     dE             d eps       ncg     rms          rms(c)
DAV:   1    -0.873338544520E+03   -0.12634E-01   -0.47182E-03  5927   0.443E-01    0.162E-02
RMM:   2    -0.873338720637E+03   -0.17612E-03   -0.18146E-03  4026   0.710E-02    0.687E-03
RMM:   3    -0.873338754837E+03   -0.34201E-04   -0.32785E-04  2930   0.318E-02
  283 T=   252. E= -.87263748E+03 F= -.87333875E+03 E0= -.87333875E+03  EK= 0.38702E+01 SP= -.32E+01 SK= 0.28E-01
Information: wavefunction orthogonal band  252  0.8751
Information: wavefunction orthogonal band  252  0.8836
Information: wavefunction orthogonal band  250  0.8804
Information: wavefunction orthogonal band  253  0.8530
 bond charge predicted
 prediction of wavefunctions
       N       E                     dE             d eps       ncg     rms          rms(c)
DAV:   1    -0.873360322631E+03   -0.21602E-01   -0.46155E-03  6004   0.456E-01    0.146E-02
RMM:   2    -0.873360521793E+03   -0.19916E-03   -0.20062E-03  4029   0.723E-02    0.630E-03
RMM:   3    -0.873360559015E+03   -0.37222E-04   -0.36363E-04  3042   0.328E-02
  284 T=   258. E= -.87263823E+03 F= -.87336056E+03 E0= -.87336056E+03  EK= 0.39670E+01 SP= -.33E+01 SK= 0.41E-01
Information: wavefunction orthogonal band  246  0.8914
Information: wavefunction orthogonal band  247  0.8948
Information: wavefunction orthogonal band  250  0.8997
Information: wavefunction orthogonal band  252  0.8823
Information: wavefunction orthogonal band  251  0.8667
Information: wavefunction orthogonal band  253  0.8922
 bond charge predicted
 prediction of wavefunctions
       N       E                     dE             d eps       ncg     rms          rms(c)
DAV:   1    -0.873388146399E+03   -0.27625E-01   -0.55154E-03  5964   0.469E-01    0.913E-03
RMM:   2    -0.873388348323E+03   -0.20192E-03   -0.20239E-03  4024   0.743E-02    0.106E-02
RMM:   3    -0.873388385908E+03   -0.37585E-04   -0.36728E-04  3051   0.332E-02
  285 T=   266. E= -.87263912E+03 F= -.87338839E+03 E0= -.87338839E+03  EK= 0.40858E+01 SP= -.34E+01 SK= 0.55E-01
Information: wavefunction orthogonal band  251  0.8492
Information: wavefunction orthogonal band  251  0.8604
Information: wavefunction orthogonal band  253  0.8861
Information: wavefunction orthogonal band  251  0.8534
Information: wavefunction orthogonal band  253  0.8784
Information: wavefunction orthogonal band  249  0.7891
Information: wavefunction orthogonal band  252  0.8888
Information: wavefunction orthogonal band  250  0.8975
 bond charge predicted
 prediction of wavefunctions
       N       E                     dE             d eps       ncg     rms          rms(c)
DAV:   1    -0.873418565239E+03   -0.30217E-01   -0.48917E-03  6151   0.483E-01    0.115E-02
RMM:   2    -0.873418764047E+03   -0.19881E-03   -0.20054E-03  4032   0.744E-02    0.169E-02
RMM:   3    -0.873418803858E+03   -0.39811E-04   -0.37434E-04  3081   0.336E-02
  286 T=   274. E= -.87264016E+03 F= -.87341880E+03 E0= -.87341880E+03  EK= 0.42216E+01 SP= -.35E+01 SK= 0.66E-01
Information: wavefunction orthogonal band  248  0.8997
Information: wavefunction orthogonal band  253  0.8979
Information: wavefunction orthogonal band  252  0.8475
Information: wavefunction orthogonal band  253  0.8904
 bond charge predicted
 prediction of wavefunctions
       N       E                     dE             d eps       ncg     rms          rms(c)
DAV:   1    -0.873447753813E+03   -0.28990E-01   -0.48120E-03  5994   0.497E-01    0.150E-02
RMM:   2    -0.873447947164E+03   -0.19335E-03   -0.19593E-03  4027   0.741E-02    0.184E-02
RMM:   3    -0.873447985273E+03   -0.38109E-04   -0.36094E-04  3069   0.333E-02
  287 T=   284. E= -.87264124E+03 F= -.87344799E+03 E0= -.87344799E+03  EK= 0.43688E+01 SP= -.36E+01 SK= 0.75E-01
Information: wavefunction orthogonal band  252  0.9000
Information: wavefunction orthogonal band  250  0.8840
Information: wavefunction orthogonal band  253  0.8713
Information: wavefunction orthogonal band  253  0.8405
 bond charge predicted
 prediction of wavefunctions
       N       E                     dE             d eps       ncg     rms          rms(c)
DAV:   1    -0.873471779679E+03   -0.23833E-01   -0.42623E-03  6254   0.512E-01    0.117E-02
RMM:   2    -0.873471982959E+03   -0.20328E-03   -0.20456E-03  4035   0.745E-02    0.154E-02
RMM:   3    -0.873472022016E+03   -0.39057E-04   -0.38136E-04  3107   0.340E-02
  288 T=   294. E= -.87264234E+03 F= -.87347202E+03 E0= -.87347202E+03  EK= 0.45208E+01 SP= -.38E+01 SK= 0.80E-01
Information: wavefunction orthogonal band  253  0.8946
Information: wavefunction orthogonal band  251  0.8840
 bond charge predicted
 prediction of wavefunctions
       N       E                     dE             d eps       ncg     rms          rms(c)
DAV:   1    -0.873486691980E+03   -0.14709E-01   -0.52166E-03  6135   0.526E-01    0.119E-02
RMM:   2    -0.873486903293E+03   -0.21131E-03   -0.21277E-03  4038   0.779E-02    0.135E-02
RMM:   3    -0.873486942069E+03   -0.38776E-04   -0.38085E-04  3145   0.349E-02
  289 T=   304. E= -.87264339E+03 F= -.87348694E+03 E0= -.87348694E+03  EK= 0.46703E+01 SP= -.39E+01 SK= 0.81E-01
Information: wavefunction orthogonal band  250  0.8927
Information: wavefunction orthogonal band  249  0.8352
Information: wavefunction orthogonal band  250  0.8997
 bond charge predicted
 prediction of wavefunctions
       N       E                     dE             d eps       ncg     rms          rms(c)
DAV:   1    -0.873488731312E+03   -0.18280E-02   -0.43543E-03  6380   0.537E-01    0.204E-02
RMM:   2    -0.873488939339E+03   -0.20803E-03   -0.21275E-03  4038   0.765E-02    0.110E-02
RMM:   3    -0.873488980353E+03   -0.41014E-04   -0.40027E-04  3210   0.350E-02
  290 T=   313. E= -.87264433E+03 F= -.87348898E+03 E0= -.87348898E+03  EK= 0.48099E+01 SP= -.40E+01 SK= 0.77E-01
 bond charge predicted
 prediction of wavefunctions
       N       E                     dE             d eps       ncg     rms          rms(c)
DAV:   1    -0.873474602185E+03    0.14337E-01   -0.56405E-03  6189   0.550E-01    0.281E-02
RMM:   2    -0.873474823975E+03   -0.22179E-03   -0.23532E-03  4045   0.816E-02    0.769E-03
RMM:   3    -0.873474868323E+03   -0.44349E-04   -0.42479E-04  3272   0.370E-02
  291 T=   321. E= -.87264510E+03 F= -.87347487E+03 E0= -.87347487E+03  EK= 0.49323E+01 SP= -.42E+01 SK= 0.70E-01
Information: wavefunction orthogonal band  253  0.8670
Information: wavefunction orthogonal band  253  0.8977
Information: wavefunction orthogonal band  253  0.8763
Information: wavefunction orthogonal band  252  0.8885
Information: wavefunction orthogonal band  252  0.8502
 bond charge predicted
 prediction of wavefunctions
       N       E                     dE             d eps       ncg     rms          rms(c)
DAV:   1    -0.873441574495E+03    0.33249E-01   -0.52270E-03  6300   0.562E-01    0.136E-02
RMM:   2    -0.873441854793E+03   -0.28030E-03   -0.28108E-03  4046   0.851E-02    0.107E-02
RMM:   3    -0.873441907311E+03   -0.52517E-04   -0.51842E-04  3434   0.392E-02
  292 T=   327. E= -.87264567E+03 F= -.87344191E+03 E0= -.87344191E+03  EK= 0.50306E+01 SP= -.43E+01 SK= 0.60E-01
Information: wavefunction orthogonal band  249  0.8788
Information: wavefunction orthogonal band  251  0.8987
Information: wavefunction orthogonal band  249  0.8586
Information: wavefunction orthogonal band  253  0.8980
Information: wavefunction orthogonal band  253  0.8604
Information: wavefunction orthogonal band  251  0.8892
Information: wavefunction orthogonal band  253  0.8826
 bond charge predicted
 prediction of wavefunctions
       N       E                     dE             d eps       ncg     rms          rms(c)
DAV:   1    -0.873387916972E+03    0.53938E-01   -0.59168E-03  6193   0.568E-01    0.153E-02
RMM:   2    -0.873388191113E+03   -0.27414E-03   -0.27710E-03  4047   0.847E-02    0.188E-02
RMM:   3    -0.873388244259E+03   -0.53146E-04   -0.51562E-04  3432   0.391E-02
  293 T=   332. E= -.87264602E+03 F= -.87338824E+03 E0= -.87338824E+03  EK= 0.50995E+01 SP= -.44E+01 SK= 0.49E-01
Information: wavefunction orthogonal band  251  0.8987
Information: wavefunction orthogonal band  250  0.8619
Information: wavefunction orthogonal band  251  0.8988
Information: wavefunction orthogonal band  251  0.8520
 bond charge predicted
 prediction of wavefunctions
       N       E                     dE             d eps       ncg     rms          rms(c)
DAV:   1    -0.873312669323E+03    0.75522E-01   -0.63132E-03  6242   0.573E-01    0.293E-02
RMM:   2    -0.873312940070E+03   -0.27075E-03   -0.27624E-03  4047   0.876E-02    0.293E-02
RMM:   3    -0.873312988642E+03   -0.48573E-04   -0.49737E-04  3453   0.397E-02
  294 T=   334. E= -.87264611E+03 F= -.87331299E+03 E0= -.87331299E+03  EK= 0.51350E+01 SP= -.45E+01 SK= 0.39E-01
Information: wavefunction orthogonal band  252  0.8938
Information: wavefunction orthogonal band  252  0.8846
Information: wavefunction orthogonal band  253  0.8747
 bond charge predicted
 prediction of wavefunctions
       N       E                     dE             d eps       ncg     rms          rms(c)
DAV:   1    -0.873215990806E+03    0.96949E-01   -0.62672E-03  6375   0.567E-01    0.771E-02
RMM:   2    -0.873216140680E+03   -0.14987E-03   -0.29120E-03  4050   0.922E-02    0.319E-02
RMM:   3    -0.873216192996E+03   -0.52315E-04   -0.74465E-04  3858   0.464E-02
  295 T=   334. E= -.87264591E+03 F= -.87321619E+03 E0= -.87321619E+03  EK= 0.51354E+01 SP= -.46E+01 SK= 0.29E-01
Information: wavefunction orthogonal band  252  0.8999
Information: wavefunction orthogonal band  253  0.8693
Information: wavefunction orthogonal band  248  0.8941
Information: wavefunction orthogonal band  252  0.8963
Information: wavefunction orthogonal band  253  0.8707
Information: wavefunction orthogonal band  252  0.8953
Information: wavefunction orthogonal band  249  0.8936
 bond charge predicted
 prediction of wavefunctions
       N       E                     dE             d eps       ncg     rms          rms(c)
DAV:   1    -0.873098672599E+03    0.11747E+00   -0.56316E-03  6311   0.583E-01    0.329E-02
RMM:   2    -0.873098945054E+03   -0.27246E-03   -0.32163E-03  4051   0.949E-02    0.254E-02
RMM:   3    -0.873098971401E+03   -0.26347E-04   -0.54569E-04  3598   0.418E-02
  296 T=   332. E= -.87264540E+03 F= -.87309897E+03 E0= -.87309897E+03  EK= 0.51012E+01 SP= -.47E+01 SK= 0.21E-01
Information: wavefunction orthogonal band  252  0.8927
Information: wavefunction orthogonal band  252  0.8574
Information: wavefunction orthogonal band  253  0.8989
Information: wavefunction orthogonal band  250  0.8905
 bond charge predicted
 prediction of wavefunctions
       N       E                     dE             d eps       ncg     rms          rms(c)
DAV:   1    -0.872963140114E+03    0.13580E+00   -0.70818E-03  6502   0.558E-01    0.380E-02
RMM:   2    -0.872963356912E+03   -0.21680E-03   -0.29090E-03  4048   0.910E-02    0.191E-02
RMM:   3    -0.872963408894E+03   -0.51983E-04   -0.59257E-04  3669   0.425E-02
  297 T=   327. E= -.87264467E+03 F= -.87296341E+03 E0= -.87296341E+03  EK= 0.50349E+01 SP= -.47E+01 SK= 0.14E-01
Information: wavefunction orthogonal band  251  0.8807
Information: wavefunction orthogonal band  248  0.8884
Information: wavefunction orthogonal band  253  0.8643
Information: wavefunction orthogonal band  253  0.8670
 bond charge predicted
 prediction of wavefunctions
       N       E                     dE             d eps       ncg     rms          rms(c)
DAV:   1    -0.872812053607E+03    0.15130E+00   -0.64126E-03  6229   0.565E-01    0.155E-02
RMM:   2    -0.872812376852E+03   -0.32325E-03   -0.32798E-03  4050   0.960E-02    0.172E-02
RMM:   3    -0.872812428135E+03   -0.51283E-04   -0.54131E-04  3632   0.430E-02
  298 T=   321. E= -.87264377E+03 F= -.87281243E+03 E0= -.87281243E+03  EK= 0.49410E+01 SP= -.48E+01 SK= 0.10E-01
Information: wavefunction orthogonal band  250  0.8514
Information: wavefunction orthogonal band  252  0.8834
 bond charge predicted
 prediction of wavefunctions
       N       E                     dE             d eps       ncg     rms          rms(c)
DAV:   1    -0.872649399069E+03    0.16298E+00   -0.54079E-03  6244   0.553E-01    0.389E-02
RMM:   2    -0.872649578683E+03   -0.17961E-03   -0.25379E-03  4047   0.850E-02    0.228E-02
RMM:   3    -0.872649617871E+03   -0.39189E-04   -0.54855E-04  3650   0.403E-02
  299 T=   314. E= -.87264268E+03 F= -.87264962E+03 E0= -.87264962E+03  EK= 0.48258E+01 SP= -.48E+01 SK= 0.75E-02
Information: wavefunction orthogonal band  253  0.8805
 bond charge predicted
 prediction of wavefunctions
       N       E                     dE             d eps       ncg     rms          rms(c)
DAV:   1    -0.872478980229E+03    0.17060E+00   -0.59816E-03  6274   0.531E-01    0.672E-02
RMM:   2    -0.872479083720E+03   -0.10349E-03   -0.30453E-03  4048   0.915E-02    0.179E-02
RMM:   3    -0.872479140817E+03   -0.57097E-04   -0.67559E-04  3817   0.457E-02
  300 T=   305. E= -.87264154E+03 F= -.87247914E+03 E0= -.87247914E+03  EK= 0.46964E+01 SP= -.49E+01 SK= 0.62E-02
Information: wavefunction orthogonal band  253  0.8507
Information: wavefunction orthogonal band  250  0.8892
Information: wavefunction orthogonal band  252  0.8527
Information: wavefunction orthogonal band  253  0.8967
Information: wavefunction orthogonal band  252  0.8945
Information: wavefunction orthogonal band  253  0.8770
 bond charge predicted
 prediction of wavefunctions
 wavefunctions rotated
Warning: ieee_invalid is signaling
Warning: ieee_divide_by_zero is signaling
Warning: ieee_underflow is signaling
Warning: ieee_inexact is signaling
FORTRAN STOP
