unknown system                          
            1
     9.239087    0.050189    4.191143
     2.676747    9.099570    4.285847
    -0.051444    0.072033   10.408063
   B    C 
    96    24
Direct configuration=     1
   0.15792300  0.40375800  0.40375800
   0.15792300  0.40375800  0.90375800
   0.15792300  0.90375800  0.40375800
   0.15792300  0.90375800  0.90375800
   0.65792300  0.40375800  0.40375800
   0.65792300  0.40375800  0.90375800
   0.65792300  0.90375800  0.40375800
   0.65792300  0.90375800  0.90375800
   0.40163200  0.40233800  0.15722000
   0.40163200  0.40233800  0.65722000
   0.40163200  0.90233800  0.15722000
   0.40163200  0.90233800  0.65722000
   0.90163200  0.40233800  0.15722000
   0.90163200  0.40233800  0.65722000
   0.90163200  0.90233800  0.15722000
   0.90163200  0.90233800  0.65722000
   0.40163200  0.15722000  0.40233800
   0.40163200  0.15722000  0.90233800
   0.40163200  0.65722000  0.40233800
   0.40163200  0.65722000  0.90233800
   0.90163200  0.15722000  0.40233800
   0.90163200  0.15722000  0.90233800
   0.90163200  0.65722000  0.40233800
   0.90163200  0.65722000  0.90233800
   0.34136600  0.09666500  0.09666500
   0.34136600  0.09666500  0.59666500
   0.34136600  0.59666500  0.09666500
   0.34136600  0.59666500  0.59666500
   0.84136600  0.09666500  0.09666500
   0.84136600  0.09666500  0.59666500
   0.84136600  0.59666500  0.09666500
   0.84136600  0.59666500  0.59666500
   0.09870000  0.09683600  0.34371100
   0.09870000  0.09683600  0.84371100
   0.09870000  0.59683600  0.34371100
   0.09870000  0.59683600  0.84371100
   0.59870000  0.09683600  0.34371100
   0.59870000  0.09683600  0.84371100
   0.59870000  0.59683600  0.34371100
   0.59870000  0.59683600  0.84371100
   0.09870000  0.34371100  0.09683600
   0.09870000  0.34371100  0.59683600
   0.09870000  0.84371100  0.09683600
   0.09870000  0.84371100  0.59683600
   0.59870000  0.34371100  0.09683600
   0.59870000  0.34371100  0.59683600
   0.59870000  0.84371100  0.09683600
   0.59870000  0.84371100  0.59683600
   0.49444700  0.49739900  0.33679800
   0.49444700  0.49739900  0.83679800
   0.49444700  0.99739900  0.33679800
   0.49444700  0.99739900  0.83679800
   0.99444700  0.49739900  0.33679800
   0.99444700  0.49739900  0.83679800
   0.99444700  0.99739900  0.33679800
   0.99444700  0.99739900  0.83679800
   0.49444700  0.33679800  0.49739900
   0.49444700  0.33679800  0.99739900
   0.49444700  0.83679800  0.49739900
   0.49444700  0.83679800  0.99739900
   0.99444700  0.33679800  0.49739900
   0.99444700  0.33679800  0.99739900
   0.99444700  0.83679800  0.49739900
   0.99444700  0.83679800  0.99739900
   0.17079500  0.00295000  0.00295000
   0.17079500  0.00295000  0.50295000
   0.17079500  0.50295000  0.00295000
   0.17079500  0.50295000  0.50295000
   0.67079500  0.00295000  0.00295000
   0.67079500  0.00295000  0.50295000
   0.67079500  0.50295000  0.00295000
   0.67079500  0.50295000  0.50295000
   0.00347500  0.00275500  0.16436200
   0.00347500  0.00275500  0.66436200
   0.00347500  0.50275500  0.16436200
   0.00347500  0.50275500  0.66436200
   0.50347500  0.00275500  0.16436200
   0.50347500  0.00275500  0.66436200
   0.50347500  0.50275500  0.16436200
   0.50347500  0.50275500  0.66436200
   0.00347500  0.16436200  0.00275500
   0.00347500  0.16436200  0.50275500
   0.00347500  0.66436200  0.00275500
   0.00347500  0.66436200  0.50275500
   0.50347500  0.16436200  0.00275500
   0.50347500  0.16436200  0.50275500
   0.50347500  0.66436200  0.00275500
   0.50347500  0.66436200  0.50275500
   0.24799500  0.24900900  0.24900900
   0.24799500  0.24900900  0.74900900
   0.24799500  0.74900900  0.24900900
   0.24799500  0.74900900  0.74900900
   0.74799500  0.24900900  0.24900900
   0.74799500  0.24900900  0.74900900
   0.74799500  0.74900900  0.24900900
   0.74799500  0.74900900  0.74900900
   0.33833600  0.49792800  0.49792800
   0.33833600  0.49792800  0.99792800
   0.33833600  0.99792800  0.49792800
   0.33833600  0.99792800  0.99792800
   0.83833600  0.49792800  0.49792800
   0.83833600  0.49792800  0.99792800
   0.83833600  0.99792800  0.49792800
   0.83833600  0.99792800  0.99792800
   0.30608800  0.30943700  0.30943700
   0.30608800  0.30943700  0.80943700
   0.30608800  0.80943700  0.30943700
   0.30608800  0.80943700  0.80943700
   0.80608800  0.30943700  0.30943700
   0.80608800  0.30943700  0.80943700
   0.80608800  0.80943700  0.30943700
   0.80608800  0.80943700  0.80943700
   0.19098900  0.18883500  0.18883500
   0.19098900  0.18883500  0.68883500
   0.19098900  0.68883500  0.18883500
   0.19098900  0.68883500  0.68883500
   0.69098900  0.18883500  0.18883500
   0.69098900  0.18883500  0.68883500
   0.69098900  0.68883500  0.18883500
   0.69098900  0.68883500  0.68883500
Direct configuration=     2
   0.15785155  0.40372258  0.40375506
   0.15785743  0.40364984  0.90374190
   0.15826130  0.90352544  0.40369025
   0.15732207  0.90450132  0.90352131
   0.65788604  0.40422579  0.40403359
   0.65848026  0.40339873  0.90349583
   0.65769626  0.90360363  0.40402183
   0.65765770  0.90364857  0.90380229
   0.40169726  0.40250081  0.15721427
   0.40148892  0.40234841  0.65744709
   0.40191556  0.90252432  0.15664630
   0.40127429  0.90248179  0.65732967
   0.90135879  0.40247778  0.15710695
   0.90168413  0.40197381  0.65776543
   0.90153347  0.90254709  0.15689686
   0.90181265  0.90228243  0.65718603
   0.40154222  0.15742047  0.40247605
   0.40166483  0.15684859  0.90268044
   0.40223072  0.65682163  0.40201181
   0.40189440  0.65702354  0.90201951
   0.90127029  0.15722063  0.40214382
   0.90171829  0.15725869  0.90211741
   0.90152920  0.65764812  0.40231306
   0.90201364  0.65681377  0.90294236
   0.34122935  0.09682310  0.09656613
   0.34131809  0.09702269  0.59644651
   0.34127924  0.59659793  0.09645398
   0.34134299  0.59702526  0.59629550
   0.84176174  0.09675728  0.09662406
   0.84119569  0.09687683  0.59703725
   0.84108334  0.59641189  0.09664529
   0.84137227  0.59646609  0.59667312
   0.09866299  0.09678468  0.34399990
   0.09891732  0.09671596  0.84400832
   0.09808744  0.59728539  0.34395361
   0.09817293  0.59680226  0.84413804
   0.59853338  0.09697908  0.34370274
   0.59956668  0.09656694  0.84370029
   0.59857372  0.59718224  0.34379455
   0.59873362  0.59669834  0.84374849
   0.09883020  0.34342893  0.09649915
   0.09895983  0.34374772  0.59656933
   0.09884537  0.84344297  0.09676119
   0.09864728  0.84320541  0.59653057
   0.59855787  0.34329999  0.09715661
   0.59837766  0.34444061  0.59681132
   0.59866675  0.84352506  0.09668194
   0.59908630  0.84410310  0.59674980
   0.49418865  0.49730973  0.33712073
   0.49461925  0.49747328  0.83687043
   0.49425531  0.99731622  0.33701864
   0.49441453  0.99750454  0.83720782
   0.99464572  0.49770179  0.33654039
   0.99426250  0.49769187  0.83656667
   0.99467052  0.99737137  0.33689256
   0.99486088  0.99722377  0.83670398
   0.49437301  0.33701482  0.49748137
   0.49458124  0.33673439  0.99763557
   0.49452589  0.83741298  0.49705712
   0.49432874  0.83673986  0.99708016
   0.99450873  0.33683788  0.49758720
   0.99420700  0.33693355  0.99749250
   0.99426521  0.83627826  0.49794455
   0.99439813  0.83666552  0.99745423
   0.17050265  0.00303108  0.00306640
   0.17087837  0.00348312  0.50258135
   0.17118790  0.50298831  0.00294689
   0.17104184  0.50311452  0.50276660
   0.67081877  0.00254376  0.00316181
   0.67069065  0.00300076  0.50290453
   0.67091865  0.50280417  0.00281475
   0.67058005  0.50302940  0.50263260
   0.00362126  0.00306648  0.16411065
   0.00328942  0.00262665  0.66466748
   0.00323047  0.50287710  0.16431838
   0.00353718  0.50283743  0.66425803
   0.50327774  0.00310142  0.16419424
   0.50416756  0.00268294  0.66393008
   0.50350836  0.50250329  0.16398042
   0.50331765  0.50299542  0.66477954
   0.00344521  0.16431726  0.00271810
   0.00371386  0.16429772  0.50252132
   0.00341515  0.66425184  0.00271099
   0.00358958  0.66406577  0.50269848
   0.50391159  0.16416668  0.00290687
   0.50305123  0.16400157  0.50329525
   0.50406092  0.66439627  0.00252590
   0.50379223  0.66425005  0.50245750
   0.24834792  0.24874154  0.24911077
   0.24755436  0.24973718  0.74850157
   0.24794962  0.74900933  0.24933782
   0.24769540  0.74893364  0.74937040
   0.74786456  0.24886488  0.24914060
   0.74718856  0.24951325  0.74908893
   0.74830388  0.74934686  0.24873485
   0.74807893  0.74896426  0.74911636
   0.33833084  0.49797445  0.49790940
   0.33838509  0.49801164  0.99770226
   0.33837752  0.99757792  0.49800271
   0.33844005  0.99815694  0.99776644
   0.83857363  0.49819868  0.49773202
   0.83824345  0.49781794  0.99779776
   0.83805111  0.99799436  0.49797480
   0.83813501  0.99784180  0.99803850
   0.30603598  0.30874411  0.30985523
   0.30626853  0.30962088  0.80932005
   0.30552662  0.80927900  0.30961378
   0.30602349  0.80924838  0.80952490
   0.80619658  0.30960365  0.30903219
   0.80619958  0.30955131  0.80918832
   0.80650879  0.80895921  0.30927065
   0.80598982  0.80932045  0.80969898
   0.19107330  0.18877825  0.18888211
   0.19114246  0.18851160  0.68931381
   0.19068679  0.68900837  0.18906077
   0.19085778  0.68856036  0.68904844
   0.69092719  0.18877648  0.18864722
   0.69050266  0.18872094  0.68922746
   0.69127593  0.68879650  0.18856722
   0.69120600  0.68874366  0.68887303
Direct configuration=     3
   0.15778086  0.40368713  0.40375132
   0.15779238  0.40354200  0.90372526
   0.15859692  0.90329397  0.40362378
   0.15672596  0.90523869  0.90328516
   0.65785085  0.40469062  0.40430622
   0.65903429  0.40304120  0.90323583
   0.65747248  0.90344943  0.40428220
   0.65739453  0.90353843  0.90384596
   0.40175903  0.40265817  0.15721286
   0.40134469  0.40235752  0.65767563
   0.40219402  0.90270546  0.15607916
   0.40091687  0.90262221  0.65744107
   0.90108567  0.40261342  0.15699636
   0.90173605  0.40160894  0.65830970
   0.90143390  0.90275214  0.15657739
   0.90198931  0.90222342  0.65715627
   0.40145152  0.15762165  0.40261138
   0.40169636  0.15648273  0.90301704
   0.40282318  0.65642941  0.40168307
   0.40215391  0.65683094  0.90169923
   0.90090822  0.15722315  0.40194803
   0.90180226  0.15729933  0.90189433
   0.90142547  0.65807610  0.40228583
   0.90238922  0.65641403  0.90353987
   0.34109236  0.09698138  0.09646859
   0.34126921  0.09737858  0.59623099
   0.34119071  0.59653301  0.09624482
   0.34131887  0.59738473  0.59592887
   0.84215395  0.09685060  0.09658380
   0.84102507  0.09708888  0.59740864
   0.84080051  0.59616001  0.09662677
   0.84137736  0.59626822  0.59668210
   0.09862808  0.09673612  0.34428612
   0.09913466  0.09659984  0.84430347
   0.09748001  0.59773540  0.34419357
   0.09765134  0.59677049  0.84456180
   0.59836877  0.09712373  0.34369374
   0.60042956  0.09630027  0.84369160
   0.59845090  0.59753008  0.34387502
   0.59877015  0.59656346  0.84378412
   0.09896112  0.34314731  0.09616650
   0.09922065  0.34378255  0.59630750
   0.09899057  0.84317626  0.09668851
   0.09859657  0.84270058  0.59622924
   0.59841834  0.34289010  0.09747688
   0.59805804  0.34516543  0.59679116
   0.59863524  0.84333839  0.09653089
   0.59947245  0.84449200  0.59666728
   0.49393096  0.49722081  0.33744229
   0.49479077  0.49754711  0.83694458
   0.49406339  0.99723481  0.33723940
   0.49438223  0.99761033  0.83761554
   0.99484267  0.49800406  0.33628584
   0.99407793  0.49798372  0.83633845
   0.99489254  0.99734350  0.33698850
   0.99527181  0.99704989  0.83661220
   0.49429835  0.33723163  0.49756472
   0.49471504  0.33667206  0.99787141
   0.49460360  0.83802528  0.49671776
   0.49421055  0.83668428  0.99676256
   0.99456959  0.33687938  0.49777488
   0.99396716  0.33706992  0.99758526
   0.99408337  0.83576250  0.49848778
   0.99434840  0.83653566  0.99750918
   0.17020728  0.00311321  0.00318397
   0.17095567  0.00401425  0.50221626
   0.17157262  0.50302715  0.00294520
   0.17128238  0.50327974  0.50258488
   0.67083772  0.00213997  0.00337442
   0.67058223  0.00305289  0.50285996
   0.67103694  0.50265950  0.00268098
   0.67036286  0.50311077  0.50231828
   0.00376864  0.00337670  0.16386054
   0.00310682  0.00249897  0.66497010
   0.00298877  0.50299881  0.16427399
   0.00360080  0.50291997  0.66415359
   0.50308269  0.00344649  0.16402739
   0.50485806  0.00261188  0.66350156
   0.50354315  0.50225311  0.16360144
   0.50316154  0.50323644  0.66519381
   0.00341664  0.16427349  0.00268163
   0.00395224  0.16423406  0.50228960
   0.00335715  0.66414116  0.00266891
   0.00370462  0.66377041  0.50264364
   0.50434823  0.16397143  0.00305869
   0.50263081  0.16364414  0.50383354
   0.50464577  0.66442830  0.00229788
   0.50410928  0.66414054  0.50216174
   0.24870016  0.24847619  0.24921419
   0.24711785  0.25046979  0.74800029
   0.24790352  0.74901078  0.24966709
   0.24739619  0.74886089  0.74973348
   0.74773465  0.24872403  0.24927490
   0.74638437  0.25002019  0.74917186
   0.74861163  0.74968492  0.24846168
   0.74816434  0.74892235  0.74922694
   0.33833178  0.49802004  0.49789012
   0.33844060  0.49809402  0.99747630
   0.33842454  0.99722884  0.49807634
   0.33854807  0.99838436  0.99760444
   0.83881484  0.49846758  0.49753577
   0.83815699  0.49770689  0.99766712
   0.83777296  0.99805999  0.49802076
   0.83794112  0.99775461  0.99814797
   0.30598304  0.30805513  0.31027051
   0.30644573  0.30980115  0.80920237
   0.30496986  0.80912117  0.30978808
   0.30595638  0.80906059  0.80961195
   0.80630060  0.30976947  0.30862878
   0.80630926  0.30966226  0.80893939
   0.80692542  0.80848542  0.30910486
   0.80589121  0.80920210  0.80995981
   0.19115706  0.18871658  0.18892392
   0.19129458  0.18818382  0.68978376
   0.19038708  0.68917539  0.18928015
   0.19072674  0.68828163  0.68925609
   0.69086637  0.18871199  0.18845567
   0.69001818  0.18860399  0.68961161
   0.69156165  0.68875389  0.18829618
   0.69142246  0.68864740  0.68890534
Direct configuration=     4
   0.15771130  0.40365199  0.40374635
   0.15772802  0.40343512  0.90370792
   0.15892688  0.90306508  0.40356022
   0.15613906  0.90596457  0.90305051
   0.65781876  0.40514996  0.40457336
   0.65958158  0.40268746  0.90298048
   0.65725411  0.90329597  0.40453613
   0.65713526  0.90342720  0.90388878
   0.40181582  0.40280798  0.15721722
   0.40120006  0.40236729  0.65790431
   0.40246439  0.90287964  0.15552207
   0.40056184  0.90275917  0.65755320
   0.90081463  0.40274403  0.15688790
   0.90178956  0.40124589  0.65884895
   0.90133413  0.90295242  0.15626240
   0.90216000  0.90216081  0.65713209
   0.40136091  0.15782154  0.40274452
   0.40172716  0.15612513  0.90334531
   0.40340513  0.65604663  0.40135245
   0.40240962  0.65664327  0.90137851
   0.90054730  0.15722668  0.40175219
   0.90188353  0.15734111  0.90166945
   0.90132178  0.65850111  0.40225732
   0.90275470  0.65602431  0.90412707
   0.34095601  0.09713912  0.09637283
   0.34121960  0.09773006  0.59602054
   0.34109995  0.59647141  0.09603845
   0.34129380  0.59774183  0.59556701
   0.84254053  0.09694513  0.09654398
   0.84085509  0.09730050  0.59777752
   0.84051856  0.59590969  0.09660979
   0.84138142  0.59607151  0.59669190
   0.09859573  0.09669059  0.34456796
   0.09935043  0.09648918  0.84459524
   0.09688112  0.59818425  0.34442917
   0.09713904  0.59674017  0.84497998
   0.59820652  0.09726908  0.34368417
   0.60128344  0.09603581  0.84368795
   0.59833346  0.59787873  0.34395022
   0.59881087  0.59643168  0.84381697
   0.09909194  0.34286740  0.09583973
   0.09948189  0.34381463  0.59605279
   0.09913390  0.84291300  0.09661762
   0.09854825  0.84219800  0.59593365
   0.59828233  0.34248326  0.09779411
   0.59774213  0.34588180  0.59677753
   0.59860560  0.84315113  0.09638339
   0.59985684  0.84487539  0.59658965
   0.49367524  0.49713219  0.33775988
   0.49496155  0.49761969  0.83702043
   0.49387168  0.99715581  0.33745869
   0.49435093  0.99771627  0.83801742
   0.99503682  0.49830501  0.33603558
   0.99389385  0.49827330  0.83611464
   0.99511227  0.99731485  0.33708545
   0.99567752  0.99687841  0.83652305
   0.49422302  0.33744677  0.49764970
   0.49484869  0.33661052  0.99810548
   0.49467961  0.83863059  0.49638310
   0.49409314  0.83663206  0.99644706
   0.99462943  0.33692242  0.49796125
   0.99372827  0.33720623  0.99767621
   0.99390198  0.83525283  0.49902619
   0.99429768  0.83640921  0.99756329
   0.16991090  0.00319606  0.00330251
   0.17102602  0.00454018  0.50185679
   0.17194606  0.50306571  0.00294498
   0.17151546  0.50344499  0.50240511
   0.67085212  0.00173962  0.00358731
   0.67047076  0.00310647  0.50281574
   0.67114961  0.50251575  0.00254879
   0.67014621  0.50319475  0.50200873
   0.00391691  0.00368391  0.16361340
   0.00292868  0.00237211  0.66526752
   0.00275128  0.50311920  0.16422856
   0.00366592  0.50300219  0.66404868
   0.50289060  0.00378835  0.16386283
   0.50554317  0.00254222  0.66308026
   0.50357942  0.50200541  0.16322797
   0.50300651  0.50347820  0.66560210
   0.00338910  0.16423216  0.00264542
   0.00418831  0.16417209  0.50206121
   0.00330150  0.66402993  0.00263011
   0.00381920  0.66347720  0.50259163
   0.50478364  0.16377679  0.00320985
   0.50221568  0.16329310  0.50436738
   0.50522725  0.66445636  0.00207143
   0.50442461  0.66403632  0.50186887
   0.24904990  0.24821174  0.24931763
   0.24668817  0.25120802  0.74750785
   0.24785474  0.74901113  0.24999402
   0.24709650  0.74879009  0.75009672
   0.74760455  0.24858643  0.24941134
   0.74558328  0.25052932  0.74925749
   0.74891599  0.75002019  0.24818716
   0.74825150  0.74888279  0.74934067
   0.33833946  0.49806481  0.49787031
   0.33850348  0.49817472  0.99725070
   0.33847704  0.99688253  0.49814871
   0.33865862  0.99860960  0.99744239
   0.83905786  0.49873378  0.49733976
   0.83807722  0.49759471  0.99753646
   0.83750274  0.99812500  0.49806591
   0.83775587  0.99766625  0.99825624
   0.30593008  0.30737506  0.31068125
   0.30661826  0.30997555  0.80908447
   0.30442413  0.80896484  0.30995884
   0.30588609  0.80887564  0.80969847
   0.80639749  0.30993479  0.30822931
   0.80641706  0.30976768  0.80869116
   0.80733585  0.80802075  0.30894126
   0.80579363  0.80908142  0.81021955
   0.19123965  0.18865063  0.18896065
   0.19144401  0.18785270  0.69024172
   0.19009215  0.68933529  0.18949234
   0.19059593  0.68800025  0.68945772
   0.69080739  0.18864104  0.18826214
   0.68953733  0.18848678  0.68998470
   0.69184486  0.68870862  0.18802403
   0.69163777  0.68854683  0.68893175
Direct configuration=     5
   0.15764326  0.40361745  0.40373975
   0.15766448  0.40332985  0.90368968
   0.15924830  0.90284021  0.40350117
   0.15556553  0.90667362  0.90281838
   0.65779097  0.40560143  0.40483258
   0.66011881  0.40233948  0.90273217
   0.65704346  0.90314387  0.40478079
   0.65688154  0.90331454  0.90393051
   0.40186621  0.40294825  0.15722866
   0.40105577  0.40237963  0.65813188
   0.40272389  0.90304529  0.15497818
   0.40021113  0.90289260  0.65766512
   0.90054756  0.40286879  0.15678116
   0.90184650  0.40088705  0.65937947
   0.90123500  0.90314723  0.15595265
   0.90232285  0.90209442  0.65711481
   0.40127146  0.15801817  0.40287605
   0.40175783  0.15577839  0.90366290
   0.40397253  0.65567637  0.40102061
   0.40266066  0.65646153  0.90105865
   0.90018893  0.15723033  0.40155775
   0.90196177  0.15738324  0.90144342
   0.90121910  0.65892040  0.40222857
   0.90310614  0.65564793  0.90470070
   0.34082121  0.09729563  0.09627923
   0.34116938  0.09807463  0.59581720
   0.34100656  0.59641420  0.09583573
   0.34126794  0.59809511  0.59521169
   0.84291946  0.09704099  0.09650439
   0.84068662  0.09751116  0.59814238
   0.84023848  0.59566113  0.09659464
   0.84138459  0.59587605  0.59670248
   0.09856638  0.09664832  0.34484376
   0.09956312  0.09638550  0.84488243
   0.09629402  0.59863034  0.34465873
   0.09663971  0.59671073  0.84539043
   0.59804696  0.09741433  0.34367420
   0.60212347  0.09577321  0.84369231
   0.59822326  0.59822743  0.34401804
   0.59885705  0.59630326  0.84384615
   0.09922188  0.34259033  0.09552039
   0.09974301  0.34384309  0.59580737
   0.09927369  0.84265527  0.09654811
   0.09850267  0.84169893  0.59564538
   0.59815068  0.34208133  0.09810579
   0.59743079  0.34658636  0.59677235
   0.59857795  0.84296336  0.09623993
   0.60023800  0.84525107  0.59651804
   0.49342275  0.49704375  0.33807086
   0.49513163  0.49769024  0.83709794
   0.49368057  0.99708026  0.33767496
   0.49432150  0.99782232  0.83840990
   0.99522719  0.49860393  0.33579074
   0.99371078  0.49855941  0.83589646
   0.99532899  0.99728492  0.33718303
   0.99607584  0.99671035  0.83643685
   0.49414702  0.33765864  0.49773700
   0.49498248  0.33654926  0.99833684
   0.49475344  0.83922479  0.49605524
   0.49397716  0.83658393  0.99613443
   0.99468809  0.33696688  0.49814556
   0.99349106  0.33734162  0.99776431
   0.99372149  0.83475113  0.49955745
   0.99424582  0.83628696  0.99761598
   0.16961545  0.00327930  0.00342185
   0.17108867  0.00505794  0.50150487
   0.17230536  0.50310322  0.00294627
   0.17173999  0.50360966  0.50222751
   0.67086227  0.00134360  0.00379999
   0.67035730  0.00316157  0.50277125
   0.67125649  0.50237268  0.00241826
   0.66993274  0.50328207  0.50170552
   0.00406583  0.00398649  0.16337087
   0.00275636  0.00224620  0.66555760
   0.00251929  0.50323742  0.16418186
   0.00373260  0.50308364  0.66394329
   0.50270214  0.00412526  0.16370191
   0.50621977  0.00247434  0.66266979
   0.50361722  0.50176110  0.16286270
   0.50285235  0.50372084  0.66600185
   0.00336242  0.16419470  0.00260931
   0.00442027  0.16411291  0.50183751
   0.00324868  0.66391807  0.00259598
   0.00393241  0.66318736  0.50254359
   0.50521670  0.16358327  0.00335978
   0.50180768  0.16295172  0.50489442
   0.50580327  0.66447875  0.00184694
   0.50473672  0.66394016  0.50157997
   0.24939538  0.24794690  0.24941942
   0.24626772  0.25195309  0.74702650
   0.24780128  0.74900814  0.25031579
   0.24679534  0.74872050  0.75045867
   0.74747348  0.24845194  0.24954935
   0.74478589  0.25104019  0.74934547
   0.74921474  0.75034984  0.24790890
   0.74834063  0.74884503  0.74945742
   0.33835447  0.49810877  0.49785010
   0.33857469  0.49825335  0.99702597
   0.33853501  0.99654059  0.49821965
   0.33877027  0.99883205  0.99728065
   0.83930104  0.49899644  0.49714440
   0.83800468  0.49748119  0.99740615
   0.83724153  0.99818953  0.49811023
   0.83758070  0.99757653  0.99836317
   0.30587792  0.30670864  0.31108607
   0.30678485  0.31014201  0.80896689
   0.30389558  0.80881128  0.31012519
   0.30581210  0.80869540  0.80978476
   0.80648484  0.31009998  0.30783616
   0.80652303  0.30986541  0.80844455
   0.80773823  0.80757011  0.30878137
   0.80569848  0.80895788  0.81047839
   0.19132046  0.18858104  0.18899258
   0.19158963  0.18751917  0.69068485
   0.18980415  0.68948738  0.18969665
   0.19046537  0.68771756  0.68965321
   0.69075116  0.18856315  0.18806837
   0.68906178  0.18837191  0.69034413
   0.69212434  0.68866213  0.18775285
   0.69185146  0.68844256  0.68895215
Direct configuration=     6
   0.15757707  0.40358381  0.40373111
   0.15760189  0.40322675  0.90367036
   0.15955850  0.90262075  0.40344820
   0.15500931  0.90736076  0.90258982
   0.65776858  0.40604285  0.40508162
   0.66064290  0.40199913  0.90249314
   0.65684269  0.90299375  0.40501358
   0.65663494  0.90320006  0.90397097
   0.40190895  0.40307712  0.15724836
   0.40091255  0.40239644  0.65835713
   0.40296999  0.90320097  0.15445027
   0.39986652  0.90302252  0.65777591
   0.90028620  0.40298694  0.15667575
   0.90190879  0.40053470  0.65989767
   0.90113726  0.90333596  0.15564877
   0.90247611  0.90202409  0.65710567
   0.40118424  0.15820963  0.40300664
   0.40178889  0.15544498  0.90396762
   0.40452158  0.65532157  0.40068817
   0.40290630  0.65628666  0.90074084
   0.89983439  0.15723327  0.40136606
   0.90203672  0.15742490  0.90121683
   0.90111837  0.65933136  0.40220064
   0.90343980  0.65528794  0.90525781
   0.34068884  0.09745028  0.09618818
   0.34111864  0.09840996  0.59562292
   0.34091015  0.59636237  0.09563741
   0.34124148  0.59844330  0.59486450
   0.84328890  0.09713837  0.09646481
   0.84052046  0.09772039  0.59850191
   0.83996116  0.59541446  0.09658163
   0.84138705  0.59568186  0.59671380
   0.09854043  0.09660955  0.34511195
   0.09977129  0.09629034  0.84516393
   0.09572172  0.59907219  0.34488063
   0.09615683  0.59668156  0.84579110
   0.59789029  0.09755872  0.34366400
   0.60294525  0.09551202  0.84370761
   0.59812220  0.59857553  0.34407638
   0.59890993  0.59617843  0.84387080
   0.09935023  0.34231712  0.09520993
   0.10000355  0.34386718  0.59557325
   0.09940835  0.84240502  0.09647956
   0.09846016  0.84120436  0.59536592
   0.59802411  0.34168592  0.09840960
   0.59712469  0.34727608  0.59677745
   0.59855238  0.84277506  0.09610092
   0.60061467  0.84561694  0.59645351
   0.49317466  0.49695534  0.33837274
   0.49530111  0.49775802  0.83717710
   0.49349039  0.99700917  0.33788670
   0.49429477  0.99792844  0.83878965
   0.99541288  0.49890022  0.33555233
   0.99352914  0.49884107  0.83568501
   0.99554206  0.99725326  0.33728086
   0.99646471  0.99654672  0.83635383
   0.49407034  0.33786581  0.49782733
   0.49511676  0.33648774  0.99856460
   0.49482461  0.83980403  0.49573622
   0.49386322  0.83654062  0.99582530
   0.99474545  0.33701264  0.49832716
   0.99325619  0.33747528  0.99784860
   0.99354221  0.83425903  0.50007948
   0.99419268  0.83616959  0.99766673
   0.16932277  0.00336265  0.00354182
   0.17114300  0.00556479  0.50116222
   0.17264785  0.50313895  0.00294908
   0.17195506  0.50377321  0.50205223
   0.67086852  0.00095263  0.00401208
   0.67024290  0.00321832  0.50272586
   0.67135747  0.50222998  0.00228938
   0.66972502  0.50337351  0.50141012
   0.00421517  0.00428294  0.16313451
   0.00259108  0.00212139  0.66583834
   0.00229394  0.50335266  0.16413368
   0.00380090  0.50316393  0.66383746
   0.50251790  0.00445560  0.16354593
   0.50688494  0.00240858  0.66227365
   0.50365662  0.50152102  0.16250810
   0.50269881  0.50396457  0.66639070
   0.00333639  0.16416253  0.00257308
   0.00464641  0.16405757  0.50161976
   0.00319915  0.66380554  0.00256787
   0.00404337  0.66290206  0.50250063
   0.50564644  0.16339131  0.00350793
   0.50140853  0.16262310  0.50541245
   0.50637202  0.66449385  0.00162475
   0.50504420  0.66385470  0.50129598
   0.24973495  0.24768029  0.24951789
   0.24585851  0.25270623  0.74655810
   0.24774112  0.74899956  0.25062967
   0.24649161  0.74865135  0.75081793
   0.74734057  0.24832036  0.24968834
   0.74399244  0.25155246  0.74943540
   0.74950583  0.75067122  0.24762449
   0.74843187  0.74880840  0.74957703
   0.33837734  0.49815200  0.49782964
   0.33865512  0.49832954  0.99680255
   0.33859833  0.99620452  0.49828904
   0.33888162  0.99905112  0.99711956
   0.83954283  0.49925484  0.49695004
   0.83793983  0.49736616  0.99727650
   0.83699027  0.99825371  0.49815377
   0.83741692  0.99748522  0.99846867
   0.30582725  0.30606032  0.31148384
   0.30694431  0.31029867  0.80885023
   0.30338999  0.80866163  0.31028649
   0.30573392  0.80852165  0.80987111
   0.80656038  0.31026536  0.30745157
   0.80662720  0.30995341  0.80820048
   0.80813096  0.80713811  0.30862656
   0.80560704  0.80883103  0.81073658
   0.19139898  0.18850843  0.18902001
   0.19173051  0.18718414  0.69111073
   0.18952505  0.68963106  0.18989254
   0.19033504  0.68743489  0.68984252
   0.69069853  0.18847788  0.18787606
   0.68859313  0.18826194  0.69068754
   0.69239892  0.68861583  0.18748457
   0.69206316  0.68833526  0.68896651
Direct configuration=     7
   0.15751303  0.40355131  0.40372005
   0.15754030  0.40312636  0.90364974
   0.15985502  0.90240799  0.40340281
   0.15447400  0.90802132  0.90236585
   0.65775258  0.40647230  0.40531836
   0.66115110  0.40166807  0.90226544
   0.65665372  0.90284622  0.40523209
   0.65639684  0.90308337  0.90401002
   0.40194286  0.40319290  0.15727740
   0.40077105  0.40241958  0.65857891
   0.40320042  0.90334552  0.15394067
   0.39952954  0.90314898  0.65788476
   0.90003216  0.40309782  0.15657118
   0.90197833  0.40019090  0.66040033
   0.90104165  0.90351814  0.15535125
   0.90261824  0.90194971  0.65710580
   0.40110034  0.15839410  0.40313700
   0.40182086  0.15512713  0.90425752
   0.40504879  0.65498490  0.40035567
   0.40314588  0.65611946  0.90042609
   0.89948474  0.15723469  0.40117835
   0.90210817  0.15746532  0.90099017
   0.90102044  0.65973162  0.40217459
   0.90375222  0.65494706  0.90579581
   0.34055970  0.09760247  0.09609994
   0.34106732  0.09873391  0.59543953
   0.34081037  0.59631677  0.09544410
   0.34121458  0.59878530  0.59452677
   0.84364721  0.09723746  0.09642501
   0.84035733  0.09792780  0.59885497
   0.83968736  0.59516969  0.09657101
   0.84138901  0.59548886  0.59672579
   0.09851823  0.09657440  0.34537111
   0.09997360  0.09620518  0.84543876
   0.09516696  0.59950853  0.34509339
   0.09569363  0.59665202  0.84618022
   0.59773666  0.09770159  0.34365374
   0.60374486  0.09525161  0.84373675
   0.59803205  0.59892249  0.34412326
   0.59897072  0.59605733  0.84389012
   0.09947637  0.34204861  0.09490959
   0.10026315  0.34388619  0.59535225
   0.09953641  0.84216404  0.09641146
   0.09842100  0.84071497  0.59509666
   0.59790325  0.34129847  0.09870345
   0.59682431  0.34794836  0.59679458
   0.59852899  0.84258617  0.09596666
   0.60098579  0.84597108  0.59639704
   0.49293207  0.49686676  0.33866329
   0.49547017  0.49782231  0.83725792
   0.49330141  0.99694353  0.33809251
   0.49427157  0.99803465  0.83915366
   0.99559313  0.49919344  0.33532117
   0.99334928  0.49911741  0.83548126
   0.99575098  0.99721937  0.33737864
   0.99684221  0.99638847  0.83627413
   0.49399295  0.33806697  0.49792141
   0.49525189  0.33642540  0.99878802
   0.49489266  0.84036479  0.49542792