 120 120   0   0
  0.7279435E+01  0.1014539E-08  0.1040844E-08  0.1040844E-08  0.5000000E-15
    5.000000000000000     
  CAR 
 unknown system                          
     14.04273546    -12.17960076  301      7.98843039      1.00000000
    -12.180  0.0000E+00  0.0000E+00
    -12.092  0.0000E+00  0.0000E+00
    -12.005  0.0000E+00  0.0000E+00
    -11.917  0.0000E+00  0.0000E+00
    -11.830  0.0000E+00  0.0000E+00
    -11.743  0.0000E+00  0.0000E+00
    -11.655  0.0000E+00  0.0000E+00
    -11.568  0.0000E+00  0.0000E+00
    -11.480  0.0000E+00  0.0000E+00
    -11.393  0.0000E+00  0.0000E+00
    -11.306  0.0000E+00  0.0000E+00
    -11.218  0.0000E+00  0.0000E+00
    -11.131  0.0000E+00  0.0000E+00
    -11.043  0.0000E+00  0.0000E+00
    -10.956  0.1705E+00  0.1803E-02
    -10.868  0.2397E+01  0.9510E-01
    -10.781  0.7203E+01  0.4953E+00
    -10.694  0.3692E+02  0.2628E+01
    -10.606  0.4233E+01  0.3747E+01
    -10.519  0.1111E+01  0.3966E+01
    -10.431  0.2899E+02  0.4349E+01
    -10.344  0.5647E+02  0.9634E+01
    -10.257  0.3503E+02  0.1270E+02
    -10.169  0.7534E+01  0.1593E+02
    -10.082  0.0000E+00  0.1600E+02
     -9.994  0.0000E+00  0.1600E+02
     -9.907  0.0000E+00  0.1600E+02
     -9.820  0.0000E+00  0.1600E+02
     -9.732  0.0000E+00  0.1600E+02
     -9.645  0.0000E+00  0.1600E+02
     -9.557  0.0000E+00  0.1600E+02
     -9.470  0.0000E+00  0.1600E+02
     -9.383  0.0000E+00  0.1600E+02
     -9.295  0.0000E+00  0.1600E+02
     -9.208  0.0000E+00  0.1600E+02
     -9.120  0.0000E+00  0.1600E+02
     -9.033  0.7792E-02  0.1600E+02
     -8.946  0.9120E+00  0.1602E+02
     -8.858  0.5872E+01  0.1628E+02
     -8.771  0.1571E+02  0.1719E+02
     -8.683  0.3999E+02  0.2006E+02
     -8.596  0.2858E+02  0.2268E+02
     -8.508  0.1286E+02  0.2444E+02
     -8.421  0.2895E+02  0.2591E+02
     -8.334  0.1687E+02  0.2819E+02
     -8.246  0.2379E+02  0.3045E+02
     -8.159  0.7298E+01  0.3178E+02
     -8.071  0.8907E+00  0.3201E+02
     -7.984  0.1351E+02  0.3256E+02
     -7.897  0.1995E+02  0.3417E+02
     -7.809  0.9819E+01  0.3551E+02
     -7.722  0.1013E+02  0.3627E+02
     -7.634  0.4448E+02  0.3842E+02
     -7.547  0.2433E+02  0.4199E+02
     -7.460  0.9268E+01  0.4338E+02
     -7.372  0.3165E+01  0.4386E+02
     -7.285  0.1181E+02  0.4433E+02
     -7.197  0.3155E+02  0.4633E+02
     -7.110  0.5901E+01  0.4826E+02
     -7.023  0.7463E+01  0.4875E+02
     -6.935  0.1315E+02  0.4962E+02
     -6.848  0.1779E+02  0.5091E+02
     -6.760  0.2545E+02  0.5302E+02
     -6.673  0.2010E+02  0.5517E+02
     -6.586  0.3443E+01  0.5596E+02
     -6.498  0.1176E+02  0.5688E+02
     -6.411  0.1489E+02  0.5803E+02
     -6.323  0.1856E+02  0.5949E+02
     -6.236  0.1974E+02  0.6123E+02
     -6.148  0.1265E+02  0.6270E+02
     -6.061  0.9073E+01  0.6364E+02
     -5.974  0.4884E+00  0.6400E+02
     -5.886  0.4768E+00  0.6400E+02
     -5.799  0.1190E+02  0.6443E+02
     -5.711  0.2574E+02  0.6635E+02
     -5.624  0.1217E+02  0.6795E+02
     -5.537  0.1235E+02  0.6887E+02
     -5.449  0.3499E+02  0.7076E+02
     -5.362  0.3577E+02  0.7518E+02
     -5.274  0.1211E+02  0.7624E+02
     -5.187  0.2306E+02  0.7786E+02
     -5.100  0.3598E+02  0.8043E+02
     -5.012  0.2212E+02  0.8336E+02
     -4.925  0.1471E+02  0.8443E+02
     -4.837  0.2662E+02  0.8701E+02
     -4.750  0.1333E+02  0.8825E+02
     -4.663  0.1616E+02  0.8959E+02
     -4.575  0.1692E+02  0.9101E+02
     -4.488  0.3021E+02  0.9273E+02
     -4.400  0.1295E+02  0.9443E+02
     -4.313  0.6429E+01  0.9521E+02
     -4.225  0.3716E+01  0.9564E+02
     -4.138  0.1813E+01  0.9588E+02
     -4.051  0.5868E+00  0.9598E+02
     -3.963  0.3767E-01  0.9600E+02
     -3.876  0.0000E+00  0.9600E+02
     -3.788  0.7118E+00  0.9601E+02
     -3.701  0.5884E+01  0.9630E+02
     -3.614  0.8748E+01  0.9693E+02
     -3.526  0.1221E+02  0.9785E+02
     -3.439  0.1297E+02  0.9897E+02
     -3.351  0.1390E+02  0.1001E+03
     -3.264  0.1601E+02  0.1014E+03
     -3.177  0.1932E+02  0.1030E+03
     -3.089  0.2595E+02  0.1049E+03
     -3.002  0.2043E+02  0.1071E+03
     -2.914  0.1566E+02  0.1089E+03
     -2.827  0.2242E+02  0.1101E+03
     -2.740  0.2413E+02  0.1124E+03
     -2.652  0.2918E+02  0.1149E+03
     -2.565  0.1737E+02  0.1165E+03
     -2.477  0.2747E+02  0.1183E+03
     -2.390  0.1437E+02  0.1204E+03
     -2.303  0.4414E+02  0.1220E+03
     -2.215  0.2535E+02  0.1242E+03
     -2.128  0.3995E+02  0.1265E+03
     -2.040  0.3250E+02  0.1296E+03
     -1.953  0.2560E+02  0.1321E+03
     -1.865  0.3349E+02  0.1346E+03
     -1.778  0.4879E+02  0.1383E+03
     -1.691  0.4229E+02  0.1425E+03
     -1.603  0.2607E+02  0.1455E+03
     -1.516  0.2553E+02  0.1477E+03
     -1.428  0.2200E+02  0.1499E+03
     -1.341  0.1100E+02  0.1513E+03
     -1.254  0.3373E+02  0.1524E+03
     -1.166  0.3097E+02  0.1557E+03
     -1.079  0.5601E+02  0.1595E+03
     -0.991  0.3320E+02  0.1635E+03
     -0.904  0.2160E+02  0.1659E+03
     -0.817  0.2468E+02  0.1678E+03
     -0.729  0.4740E+02  0.1707E+03
     -0.642  0.3204E+02  0.1744E+03
     -0.554  0.2350E+02  0.1766E+03
     -0.467  0.2455E+02  0.1787E+03
     -0.380  0.2799E+02  0.1810E+03
     -0.292  0.2421E+02  0.1833E+03
     -0.205  0.1938E+02  0.1851E+03
     -0.117  0.3184E+02  0.1880E+03
     -0.030  0.2409E+02  0.1891E+03
      0.057  0.8034E+02  0.1938E+03
      0.145  0.3405E+02  0.1990E+03
      0.232  0.2159E+02  0.2010E+03
      0.320  0.3582E+02  0.2037E+03
      0.407  0.2671E+02  0.2063E+03
      0.495  0.3519E+02  0.2092E+03
      0.582  0.2946E+02  0.2120E+03
      0.669  0.2349E+02  0.2142E+03
      0.757  0.2671E+02  0.2164E+03
      0.844  0.3338E+02  0.2190E+03
      0.932  0.5484E+02  0.2229E+03
      1.019  0.4513E+02  0.2271E+03
      1.106  0.4466E+02  0.2309E+03
      1.194  0.4111E+02  0.2348E+03
      1.281  0.1764E+02  0.2372E+03
      1.369  0.2976E+02  0.2391E+03
      1.456  0.3006E+02  0.2420E+03
      1.543  0.4071E+02  0.2450E+03
      1.631  0.5417E+02  0.2494E+03
      1.718  0.2817E+02  0.2530E+03
      1.806  0.2929E+02  0.2552E+03
      1.893  0.7720E+02  0.2592E+03
      1.980  0.6806E+02  0.2647E+03
      2.068  0.4886E+02  0.2689E+03
      2.155  0.5092E+02  0.2725E+03
      2.243  0.2404E+02  0.2756E+03
      2.330  0.5120E+02  0.2791E+03
      2.417  0.9084E+02  0.2842E+03
      2.505  0.4806E+02  0.2885E+03
      2.592  0.5134E+02  0.2924E+03
      2.680  0.4286E+02  0.2965E+03
      2.767  0.4237E+02  0.3012E+03
      2.855  0.3148E+02  0.3033E+03
      2.942  0.5918E+02  0.3075E+03
      3.029  0.6483E+02  0.3131E+03
      3.117  0.4470E+02  0.3170E+03
      3.204  0.5783E+02  0.3218E+03
      3.292  0.3508E+02  0.3254E+03
      3.379  0.3290E+02  0.3285E+03
      3.466  0.3262E+02  0.3313E+03
      3.554  0.3344E+02  0.3343E+03
      3.641  0.5102E+02  0.3379E+03
      3.729  0.5869E+02  0.3428E+03
      3.816  0.4831E+02  0.3474E+03
      3.903  0.2684E+02  0.3504E+03
      3.991  0.7322E+02  0.3536E+03
      4.078  0.8656E+02  0.3603E+03
      4.166  0.2504E+02  0.3646E+03
      4.253  0.2891E+02  0.3669E+03
      4.340  0.3728E+02  0.3698E+03
      4.428  0.4288E+02  0.3733E+03
      4.515  0.3769E+02  0.3768E+03
      4.603  0.2784E+02  0.3796E+03
      4.690  0.2076E+02  0.3818E+03
      4.778  0.1004E+02  0.3831E+03
      4.865  0.4252E+01  0.3837E+03
      4.952  0.1186E+01  0.3839E+03
      5.040  0.3201E+00  0.3840E+03
      5.127  0.1361E-01  0.3840E+03
      5.215  0.0000E+00  0.3840E+03
      5.302  0.0000E+00  0.3840E+03
      5.389  0.0000E+00  0.3840E+03
      5.477  0.0000E+00  0.3840E+03
      5.564  0.0000E+00  0.3840E+03
      5.652  0.0000E+00  0.3840E+03
      5.739  0.0000E+00  0.3840E+03
      5.826  0.0000E+00  0.3840E+03
      5.914  0.0000E+00  0.3840E+03
      6.001  0.0000E+00  0.3840E+03
      6.089  0.0000E+00  0.3840E+03
      6.176  0.0000E+00  0.3840E+03
      6.263  0.0000E+00  0.3840E+03
      6.351  0.0000E+00  0.3840E+03
      6.438  0.0000E+00  0.3840E+03
      6.526  0.0000E+00  0.3840E+03
      6.613  0.0000E+00  0.3840E+03
      6.700  0.0000E+00  0.3840E+03
      6.788  0.0000E+00  0.3840E+03
      6.875  0.0000E+00  0.3840E+03
      6.963  0.0000E+00  0.3840E+03
      7.050  0.0000E+00  0.3840E+03
      7.138  0.0000E+00  0.3840E+03
      7.225  0.0000E+00  0.3840E+03
      7.312  0.0000E+00  0.3840E+03
      7.400  0.0000E+00  0.3840E+03
      7.487  0.0000E+00  0.3840E+03
      7.575  0.0000E+00  0.3840E+03
      7.662  0.0000E+00  0.3840E+03
      7.749  0.0000E+00  0.3840E+03
      7.837  0.0000E+00  0.3840E+03
      7.924  0.0000E+00  0.3840E+03
      8.012  0.3850E-01  0.3840E+03
      8.099  0.1170E+01  0.3840E+03
      8.186  0.5208E+01  0.3843E+03
      8.274  0.1543E+02  0.3851E+03
      8.361  0.3076E+02  0.3873E+03
      8.449  0.3104E+02  0.3898E+03
      8.536  0.3004E+02  0.3928E+03
      8.623  0.2279E+02  0.3948E+03
      8.711  0.2383E+02  0.3969E+03
      8.798  0.2476E+02  0.3990E+03
      8.886  0.2954E+02  0.4014E+03
      8.973  0.2849E+02  0.4039E+03
      9.060  0.2560E+02  0.4063E+03
      9.148  0.3039E+02  0.4087E+03
      9.235  0.2940E+02  0.4113E+03
      9.323  0.3277E+02  0.4140E+03
      9.410  0.2972E+02  0.4168E+03
      9.498  0.2875E+02  0.4193E+03
      9.585  0.4343E+02  0.4224E+03
      9.672  0.2610E+02  0.4258E+03
      9.760  0.2729E+02  0.4277E+03
      9.847  0.4845E+02  0.4315E+03
      9.935  0.3178E+02  0.4345E+03
     10.022  0.1773E+02  0.4367E+03
     10.109  0.2986E+02  0.4387E+03
     10.197  0.3451E+02  0.4412E+03
     10.284  0.2632E+02  0.4437E+03
     10.372  0.2737E+02  0.4461E+03
     10.459  0.3173E+02  0.4488E+03
     10.546  0.2375E+02  0.4511E+03
     10.634  0.1872E+02  0.4530E+03
     10.721  0.2225E+02  0.4546E+03
     10.809  0.2552E+02  0.4568E+03
     10.896  0.2052E+02  0.4588E+03
     10.983  0.2085E+02  0.4606E+03
     11.071  0.2383E+02  0.4625E+03
     11.158  0.2771E+02  0.4648E+03
     11.246  0.2753E+02  0.4672E+03
     11.333  0.2486E+02  0.4695E+03
     11.421  0.2126E+02  0.4715E+03
     11.508  0.2038E+02  0.4733E+03
     11.595  0.2235E+02  0.4752E+03
     11.683  0.2684E+02  0.4773E+03
     11.770  0.2636E+02  0.4797E+03
     11.858  0.2257E+02  0.4818E+03
     11.945  0.1822E+02  0.4836E+03
     12.032  0.1993E+02  0.4852E+03
     12.120  0.2462E+02  0.4871E+03
     12.207  0.3862E+02  0.4898E+03
     12.295  0.3105E+02  0.4929E+03
     12.382  0.1714E+02  0.4949E+03
     12.469  0.2395E+02  0.4965E+03
     12.557  0.3275E+02  0.4991E+03
     12.644  0.2420E+02  0.5016E+03
     12.732  0.2598E+02  0.5036E+03
     12.819  0.1909E+02  0.5058E+03
     12.906  0.9561E-01  0.5060E+03
     12.994  0.0000E+00  0.5060E+03
     13.081  0.0000E+00  0.5060E+03
     13.169  0.0000E+00  0.5060E+03
     13.256  0.0000E+00  0.5060E+03
     13.343  0.0000E+00  0.5060E+03
     13.431  0.0000E+00  0.5060E+03
     13.518  0.0000E+00  0.5060E+03
     13.606  0.0000E+00  0.5060E+03
     13.693  0.0000E+00  0.5060E+03
     13.781  0.0000E+00  0.5060E+03
     13.868  0.0000E+00  0.5060E+03
     13.955  0.0000E+00  0.5060E+03
     14.043  0.0000E+00  0.5060E+03
     14.10475665    -12.18367093  301      7.98997394      1.00000000
    -12.184  0.0000E+00  0.0000E+00
    -12.096  0.0000E+00  0.0000E+00
    -12.008  0.0000E+00  0.0000E+00
    -11.921  0.0000E+00  0.0000E+00
    -11.833  0.0000E+00  0.0000E+00
    -11.746  0.0000E+00  0.0000E+00
    -11.658  0.0000E+00  0.0000E+00
    -11.570  0.0000E+00  0.0000E+00
    -11.483  0.0000E+00  0.0000E+00
    -11.395  0.0000E+00  0.0000E+00
    -11.307  0.0000E+00  0.0000E+00
    -11.220  0.0000E+00  0.0000E+00
    -11.132  0.0000E+00  0.0000E+00
    -11.045  0.0000E+00  0.0000E+00
    -10.957  0.1722E-02  0.1829E-04
    -10.869  0.2421E-01  0.9643E-03
    -10.782  0.7273E-01  0.5022E-02
    -10.694  0.3511E+00  0.2695E-01
    -10.606  0.4140E-01  0.3748E-01
    -10.519  0.1123E-01  0.3964E-01
    -10.431  0.3327E+00  0.4389E-01
    -10.343  0.5459E+00  0.9862E-01
    -10.256  0.4534E+00  0.1299E+00
    -10.168  0.4644E-01  0.1598E+00
    -10.081  0.0000E+00  0.1600E+00
     -9.993  0.0000E+00  0.1600E+00
     -9.905  0.0000E+00  0.1600E+00
     -9.818  0.0000E+00  0.1600E+00
     -9.730  0.0000E+00  0.1600E+00
     -9.642  0.0000E+00  0.1600E+00
     -9.555  0.0000E+00  0.1600E+00
     -9.467  0.0000E+00  0.1600E+00
     -9.380  0.0000E+00  0.1600E+00
     -9.292  0.0000E+00  0.1600E+00
     -9.204  0.0000E+00  0.1600E+00
     -9.117  0.0000E+00  0.1600E+00
     -9.029  0.1535E-03  0.1600E+00
     -8.941  0.1233E-01  0.1603E+00
     -8.854  0.6824E-01  0.1635E+00
     -8.766  0.1737E+00  0.1738E+00
     -8.679  0.2858E+00  0.2057E+00
     -8.591  0.2639E+00  0.2298E+00
     -8.503  0.1107E+00  0.2459E+00
     -8.416  0.3281E+00  0.2622E+00
     -8.328  0.2264E+00  0.2838E+00
     -8.240  0.2091E+00  0.3080E+00
     -8.153  0.5076E-01  0.3190E+00
     -8.065  0.2096E-01  0.3203E+00
     -7.978  0.1627E+00  0.3279E+00
     -7.890  0.1919E+00  0.3448E+00
     -7.802  0.8188E-01  0.3567E+00
     -7.715  0.1258E+00  0.3646E+00
     -7.627  0.4907E+00  0.3920E+00
     -7.539  0.2012E+00  0.4234E+00
     -7.452  0.7694E-01  0.4351E+00
     -7.364  0.2889E-01  0.4391E+00
     -7.276  0.1677E+00  0.4456E+00
     -7.189  0.3320E+00  0.4695E+00
     -7.101  0.4221E-01  0.4832E+00
     -7.014  0.7954E-01  0.4885E+00
     -6.926  0.1364E+00  0.4978E+00
     -6.838  0.1785E+00  0.5107E+00
     -6.751  0.2465E+00  0.5317E+00
     -6.663  0.1850E+00  0.5532E+00
     -6.575  0.7555E-01  0.5599E+00
     -6.488  0.1192E+00  0.5699E+00
     -6.400  0.1531E+00  0.5817E+00
     -6.313  0.1908E+00  0.5968E+00
     -6.225  0.1943E+00  0.6144E+00
     -6.137  0.1178E+00  0.6285E+00
     -6.050  0.7661E-01  0.6374E+00
     -5.962  0.1816E-02  0.6400E+00
     -5.874  0.1294E-01  0.6402E+00
     -5.787  0.1590E+00  0.6465E+00
     -5.699  0.2266E+00  0.6678E+00
     -5.612  0.1073E+00  0.6817E+00
     -5.524  0.1564E+00  0.6914E+00
     -5.436  0.4480E+00  0.7151E+00
     -5.349  0.2142E+00  0.7574E+00
     -5.261  0.1805E+00  0.7654E+00
     -5.173  0.2596E+00  0.7836E+00
     -5.086  0.3543E+00  0.8118E+00
     -4.998  0.1406E+00  0.8372E+00
     -4.911  0.2158E+00  0.8480E+00
     -4.823  0.2232E+00  0.8748E+00
     -4.735  0.1475E+00  0.8857E+00
     -4.648  0.1574E+00  0.8995E+00
     -4.560  0.1781E+00  0.9140E+00
     -4.472  0.2272E+00  0.9345E+00
     -4.385  0.1006E+00  0.9469E+00
     -4.297  0.5513E-01  0.9535E+00
     -4.210  0.3123E-01  0.9572E+00
     -4.122  0.1411E-01  0.9592E+00
     -4.034  0.3698E-02  0.9599E+00
     -3.947  0.9071E-05  0.9600E+00
     -3.859  0.0000E+00  0.9600E+00
     -3.771  0.1354E-01  0.9603E+00
     -3.684  0.6091E-01  0.9641E+00
     -3.596  0.9199E-01  0.9707E+00
     -3.508  0.1294E+00  0.9804E+00
     -3.421  0.1340E+00  0.9920E+00
     -3.333  0.1468E+00  0.1004E+01
     -3.246  0.1715E+00  0.1018E+01
     -3.158  0.2081E+00  0.1035E+01
     -3.070  0.2893E+00  0.1056E+01
     -2.983  0.2219E+00  0.1076E+01
     -2.895  0.1192E+00  0.1093E+01
     -2.807  0.3112E+00  0.1109E+01
     -2.720  0.2328E+00  0.1130E+01
     -2.632  0.2134E+00  0.1154E+01
     -2.545  0.1843E+00  0.1169E+01
     -2.457  0.2961E+00  0.1191E+01
     -2.369  0.8354E-01  0.1206E+01
     -2.282  0.2578E+00  0.1229E+01
     -2.194  0.2503E+00  0.1250E+01
     -2.106  0.3777E+00  0.1280E+01
     -2.019  0.3087E+00  0.1306E+01
     -1.931  0.2631E+00  0.1330E+01
     -1.844  0.4314E+00  0.1359E+01
     -1.756  0.4974E+00  0.1401E+01
     -1.668  0.3627E+00  0.1439E+01
     -1.581  0.2621E+00  0.1464E+01
     -1.493  0.2572E+00  0.1487E+01
     -1.405  0.1655E+00  0.1506E+01
     -1.318  0.7251E-01  0.1516E+01
     -1.230  0.5452E+00  0.1542E+01
     -1.143  0.3789E+00  0.1568E+01
     -1.055  0.4999E+00  0.1614E+01
     -0.967  0.2825E+00  0.1646E+01
     -0.880  0.2140E+00  0.1666E+01
     -0.792  0.2841E+00  0.1688E+01
     -0.704  0.4854E+00  0.1724E+01
     -0.617  0.2468E+00  0.1755E+01
     -0.529  0.2283E+00  0.1775E+01
     -0.442  0.2578E+00  0.1796E+01
     -0.354  0.2773E+00  0.1820E+01
     -0.266  0.2239E+00  0.1843E+01
     -0.179  0.5119E+00  0.1862E+01
     -0.091  0.1146E+00  0.1883E+01
     -0.003  0.4971E+00  0.1903E+01
      0.084  0.6519E+00  0.1967E+01
      0.172  0.2165E+00  0.2002E+01
      0.260  0.3383E+00  0.2023E+01
      0.347  0.2901E+00  0.2052E+01
      0.435  0.3538E+00  0.2076E+01
      0.522  0.3320E+00  0.2107E+01
      0.610  0.2209E+00  0.2131E+01
      0.698  0.2682E+00  0.2152E+01
      0.785  0.3007E+00  0.2177E+01
      0.873  0.4949E+00  0.2209E+01
      0.961  0.4273E+00  0.2254E+01
      1.048  0.4414E+00  0.2293E+01
      1.136  0.4521E+00  0.2332E+01
      1.223  0.2166E+00  0.2365E+01
      1.311  0.1949E+00  0.2381E+01
      1.399  0.3554E+00  0.2407E+01
      1.486  0.3568E+00  0.2435E+01
      1.574  0.5254E+00  0.2472E+01
      1.662  0.3859E+00  0.2516E+01
      1.749  0.2306E+00  0.2540E+01
      1.837  0.4220E+00  0.2568E+01
      1.924  0.4947E+00  0.2623E+01
      2.012  0.4053E+00  0.2670E+01
      2.100  0.2274E+00  0.2706E+01
      2.187  0.3841E+00  0.2744E+01
      2.275  0.3448E+00  0.2765E+01
      2.363  0.1017E+01  0.2806E+01
      2.450  0.5430E+00  0.2866E+01
      2.538  0.4198E+00  0.2905E+01
      2.625  0.4519E+00  0.2948E+01
      2.713  0.8242E+00  0.2995E+01
      2.801  0.1994E+00  0.3024E+01
      2.888  0.5633E+00  0.3057E+01
      2.976  0.6467E+00  0.3109E+01
      3.064  0.4442E+00  0.3155E+01
      3.151  0.5221E+00  0.3197E+01
      3.239  0.4134E+00  0.3240E+01
      3.327  0.3579E+00  0.3272E+01
      3.414  0.3049E+00  0.3300E+01
      3.502  0.3560E+00  0.3330E+01
      3.589  0.4393E+00  0.3362E+01
      3.677  0.5798E+00  0.3407E+01
      3.765  0.4147E+00  0.3456E+01
      3.852  0.3194E+00  0.3495E+01
      3.940  0.3481E+00  0.3517E+01
      4.028  0.8441E+00  0.3573E+01
      4.115  0.3675E+00  0.3637E+01
      4.203  0.2780E+00  0.3660E+01
      4.290  0.3447E+00  0.3685E+01
      4.378  0.3981E+00  0.3718E+01
      4.466  0.3894E+00  0.3752E+01
      4.553  0.2962E+00  0.3784E+01
      4.641  0.2555E+00  0.3809E+01
      4.729  0.1431E+00  0.3826E+01
      4.816  0.6657E-01  0.3835E+01
      4.904  0.2265E-01  0.3839E+01
      4.991  0.6394E-02  0.3840E+01
      5.079  0.7446E-03  0.3840E+01
      5.167  0.0000E+00  0.3840E+01
      5.254  0.0000E+00  0.3840E+01
      5.342  0.0000E+00  0.3840E+01
      5.430  0.0000E+00  0.3840E+01
      5.517  0.0000E+00  0.3840E+01
      5.605  0.0000E+00  0.3840E+01
      5.692  0.0000E+00  0.3840E+01
      5.780  0.0000E+00  0.3840E+01
      5.868  0.0000E+00  0.3840E+01
      5.955  0.0000E+00  0.3840E+01
      6.043  0.0000E+00  0.3840E+01
      6.131  0.0000E+00  0.3840E+01
      6.218  0.0000E+00  0.3840E+01
      6.306  0.0000E+00  0.3840E+01
      6.393  0.0000E+00  0.3840E+01
      6.481  0.0000E+00  0.3840E+01
      6.569  0.0000E+00  0.3840E+01
      6.656  0.0000E+00  0.3840E+01
      6.744  0.0000E+00  0.3840E+01
      6.832  0.0000E+00  0.3840E+01
      6.919  0.0000E+00  0.3840E+01
      7.007  0.0000E+00  0.3840E+01
      7.095  0.0000E+00  0.3840E+01
      7.182  0.0000E+00  0.3840E+01
      7.270  0.0000E+00  0.3840E+01
      7.357  0.0000E+00  0.3840E+01
      7.445  0.0000E+00  0.3840E+01
      7.533  0.0000E+00  0.3840E+01
      7.620  0.0000E+00  0.3840E+01
      7.708  0.0000E+00  0.3840E+01
      7.796  0.0000E+00  0.3840E+01
      7.883  0.0000E+00  0.3840E+01
      7.971  0.0000E+00  0.3840E+01
      8.058  0.7148E-02  0.3840E+01
      8.146  0.4215E-01  0.3842E+01
      8.234  0.1100E+00  0.3848E+01
      8.321  0.3021E+00  0.3869E+01
      8.409  0.2020E+00  0.3892E+01
      8.497  0.3620E+00  0.3923E+01
      8.584  0.2243E+00  0.3945E+01
      8.672  0.2400E+00  0.3966E+01
      8.759  0.2320E+00  0.3986E+01
      8.847  0.2974E+00  0.4010E+01
      8.935  0.2963E+00  0.4036E+01
      9.022  0.2518E+00  0.4060E+01
      9.110  0.2928E+00  0.4084E+01
      9.198  0.2907E+00  0.4110E+01
      9.285  0.3456E+00  0.4137E+01
      9.373  0.3127E+00  0.4166E+01
      9.460  0.2656E+00  0.4191E+01
      9.548  0.4567E+00  0.4222E+01
      9.636  0.2397E+00  0.4257E+01
      9.723  0.1279E+00  0.4273E+01
      9.811  0.5585E+00  0.4312E+01
      9.899  0.3766E+00  0.4343E+01
      9.986  0.1847E+00  0.4367E+01
     10.074  0.2470E+00  0.4388E+01
     10.161  0.3586E+00  0.4414E+01
     10.249  0.2449E+00  0.4436E+01
     10.337  0.2486E+00  0.4460E+01
     10.424  0.3484E+00  0.4486E+01
     10.512  0.2254E+00  0.4509E+01
     10.600  0.1717E+00  0.4528E+01
     10.687  0.2193E+00  0.4544E+01
     10.775  0.2645E+00  0.4567E+01
     10.863  0.2053E+00  0.4587E+01
     10.950  0.2035E+00  0.4605E+01
     11.038  0.2338E+00  0.4624E+01
     11.125  0.2810E+00  0.4647E+01
     11.213  0.2799E+00  0.4671E+01
     11.301  0.2512E+00  0.4695E+01
     11.388  0.2103E+00  0.4715E+01
     11.476  0.1976E+00  0.4733E+01
     11.564  0.2113E+00  0.4750E+01
     11.651  0.2427E+00  0.4770E+01
     11.739  0.2340E+00  0.4791E+01
     11.826  0.2007E+00  0.4810E+01
     11.914  0.1605E+00  0.4826E+01
     12.002  0.1312E+00  0.4839E+01
     12.089  0.1234E+00  0.4850E+01
     12.177  0.1565E+00  0.4861E+01
     12.265  0.1288E+00  0.4874E+01
     12.352  0.2677E+00  0.4891E+01
     12.440  0.4410E+00  0.4919E+01
     12.527  0.3769E+00  0.4954E+01
     12.615  0.3030E+00  0.4980E+01
     12.703  0.1987E+00  0.5007E+01
     12.790  0.4871E+00  0.5032E+01
     12.878  0.1917E+00  0.5058E+01
     12.966  0.0000E+00  0.5060E+01
     13.053  0.0000E+00  0.5060E+01
     13.141  0.0000E+00  0.5060E+01
     13.228  0.0000E+00  0.5060E+01
     13.316  0.0000E+00  0.5060E+01
     13.404  0.0000E+00  0.5060E+01
     13.491  0.0000E+00  0.5060E+01
     13.579  0.0000E+00  0.5060E+01
     13.667  0.0000E+00  0.5060E+01
     13.754  0.0000E+00  0.5060E+01
     13.842  0.0000E+00  0.5060E+01
     13.930  0.0000E+00  0.5060E+01
     14.017  0.0000E+00  0.5060E+01
     14.105  0.0000E+00  0.5060E+01
