       N       E                     dE             d eps       ncg     rms          rms(c)
DAV:   1     0.153700934157E+04    0.15370E+04   -0.21913E+05  4048   0.179E+03
DAV:   2    -0.780496174706E+03   -0.23175E+04   -0.21835E+04  4920   0.315E+02
DAV:   3    -0.927822129099E+03   -0.14733E+03   -0.14506E+03  4888   0.704E+01
DAV:   4    -0.931428896100E+03   -0.36068E+01   -0.35852E+01  4832   0.113E+01
DAV:   5    -0.931530480462E+03   -0.10158E+00   -0.10140E+00  4808   0.180E+00    0.406E+01
RMM:   6    -0.886198427088E+03    0.45332E+02   -0.64357E+01  4048   0.117E+01    0.218E+01
RMM:   7    -0.877991869612E+03    0.82066E+01   -0.55523E+01  4048   0.113E+01    0.791E+00
RMM:   8    -0.877591092442E+03    0.40078E+00   -0.73974E+00  4048   0.452E+00    0.257E+00
RMM:   9    -0.877296585672E+03    0.29451E+00   -0.20276E+00  4048   0.225E+00    0.927E-01
RMM:  10    -0.877297520995E+03   -0.93532E-03   -0.27116E-01  4128   0.946E-01    0.665E-01
RMM:  11    -0.877287444653E+03    0.10076E-01   -0.65594E-02  4048   0.448E-01    0.130E-01
RMM:  12    -0.877289059753E+03   -0.16151E-02   -0.10156E-02  4090   0.185E-01    0.156E-01
RMM:  13    -0.877288457016E+03    0.60274E-03   -0.25444E-03  4137   0.794E-02    0.670E-02
RMM:  14    -0.877288468889E+03   -0.11873E-04   -0.20518E-03  3996   0.683E-02    0.324E-02
RMM:  15    -0.877288445310E+03    0.23579E-04   -0.17878E-04  2580   0.276E-02
    1 T=     5. E= -.87721115E+03 F= -.87728845E+03 E0= -.87728845E+03  EK= 0.77300E-01 SP= 0.00E+00 SK= 0.61E-08
       N       E                     dE             d eps       ncg     rms          rms(c)
DAV:   1    -0.877289524991E+03   -0.10561E-02   -0.37010E-02  4560   0.412E-01    0.455E-02
RMM:   2    -0.877289544022E+03   -0.19031E-04   -0.71351E-04  4045   0.561E-02
    2 T=     5. E= -.87721115E+03 F= -.87728954E+03 E0= -.87728954E+03  EK= 0.78381E-01 SP= 0.96E-05 SK= 0.20E-06
       N       E                     dE             d eps       ncg     rms          rms(c)
DAV:   1    -0.877290668383E+03   -0.11434E-02   -0.77368E-04  4176   0.900E-02    0.196E-02
RMM:   2    -0.877290692999E+03   -0.24616E-04   -0.32956E-04  2923   0.392E-02
    3 T=     5. E= -.87721116E+03 F= -.87729069E+03 E0= -.87729069E+03  EK= 0.79478E-01 SP= 0.56E-04 SK= 0.16E-05
       N       E                     dE             d eps       ncg     rms          rms(c)
DAV:   1    -0.877291784364E+03   -0.11160E-02   -0.12129E-03  4365   0.935E-02    0.164E-02
RMM:   2    -0.877291801709E+03   -0.17344E-04   -0.25444E-04  2530   0.319E-02
    4 T=     5. E= -.87721118E+03 F= -.87729180E+03 E0= -.87729180E+03  EK= 0.80453E-01 SP= 0.16E-03 SK= 0.62E-05
       N       E                     dE             d eps       ncg     rms          rms(c)
DAV:   1    -0.877292712987E+03   -0.92862E-03   -0.61939E-04  4373   0.875E-02    0.205E-02
RMM:   2    -0.877292735752E+03   -0.22766E-04   -0.26995E-04  2637   0.343E-02
    5 T=     5. E= -.87721118E+03 F= -.87729274E+03 E0= -.87729274E+03  EK= 0.81174E-01 SP= 0.36E-03 SK= 0.16E-04
       N       E                     dE             d eps       ncg     rms          rms(c)
DAV:   1    -0.877293372032E+03   -0.65905E-03   -0.30647E-04  3411   0.833E-02    0.193E-02
RMM:   2    -0.877293388187E+03   -0.16155E-04   -0.20898E-04  2550   0.295E-02
    6 T=     5. E= -.87721120E+03 F= -.87729339E+03 E0= -.87729339E+03  EK= 0.81495E-01 SP= 0.66E-03 SK= 0.34E-04
       N       E                     dE             d eps       ncg     rms          rms(c)
DAV:   1    -0.877293642119E+03   -0.27009E-03   -0.29756E-04  3653   0.843E-02    0.153E-02
RMM:   2    -0.877293658757E+03   -0.16638E-04   -0.21729E-04  2466   0.309E-02
    7 T=     5. E= -.87721121E+03 F= -.87729366E+03 E0= -.87729366E+03  EK= 0.81313E-01 SP= 0.11E-02 SK= 0.58E-04
       N       E                     dE             d eps       ncg     rms          rms(c)
DAV:   1    -0.877293448367E+03    0.19375E-03   -0.31833E-04  3552   0.864E-02    0.183E-02
RMM:   2    -0.877293470919E+03   -0.22551E-04   -0.24846E-04  2547   0.319E-02
    8 T=     5. E= -.87721122E+03 F= -.87729347E+03 E0= -.87729347E+03  EK= 0.80569E-01 SP= 0.16E-02 SK= 0.85E-04
       N       E                     dE             d eps       ncg     rms          rms(c)
DAV:   1    -0.877292769725E+03    0.67864E-03   -0.32964E-04  3823   0.848E-02    0.174E-02
RMM:   2    -0.877292785308E+03   -0.15584E-04   -0.21655E-04  2473   0.295E-02
    9 T=     5. E= -.87721121E+03 F= -.87729279E+03 E0= -.87729279E+03  EK= 0.79250E-01 SP= 0.22E-02 SK= 0.11E-03
       N       E                     dE             d eps       ncg     rms          rms(c)
DAV:   1    -0.877291583564E+03    0.11862E-02   -0.42610E-04  4056   0.830E-02    0.173E-02
RMM:   2    -0.877291598166E+03   -0.14602E-04   -0.21687E-04  2442   0.298E-02
   10 T=     5. E= -.87721120E+03 F= -.87729160E+03 E0= -.87729160E+03  EK= 0.77391E-01 SP= 0.29E-02 SK= 0.12E-03
       N       E                     dE             d eps       ncg     rms          rms(c)
DAV:   1    -0.877289924981E+03    0.16586E-02   -0.47989E-04  4214   0.864E-02    0.172E-02
RMM:   2    -0.877289947744E+03   -0.22763E-04   -0.24937E-04  2451   0.316E-02
   11 T=     5. E= -.87721118E+03 F= -.87728995E+03 E0= -.87728995E+03  EK= 0.75078E-01 SP= 0.36E-02 SK= 0.12E-03
       N       E                     dE             d eps       ncg     rms          rms(c)
DAV:   1    -0.877287885699E+03    0.20393E-02   -0.46145E-04  4050   0.826E-02    0.171E-02
RMM:   2    -0.877287903447E+03   -0.17748E-04   -0.22494E-04  2452   0.299E-02
   12 T=     5. E= -.87721116E+03 F= -.87728790E+03 E0= -.87728790E+03  EK= 0.72446E-01 SP= 0.42E-02 SK= 0.90E-04
       N       E                     dE             d eps       ncg     rms          rms(c)
DAV:   1    -0.877285559104E+03    0.23266E-02   -0.39012E-04  4070   0.791E-02    0.177E-02
RMM:   2    -0.877285570685E+03   -0.11581E-04   -0.20923E-04  2434   0.293E-02
   13 T=     5. E= -.87721113E+03 F= -.87728557E+03 E0= -.87728557E+03  EK= 0.69648E-01 SP= 0.47E-02 SK= 0.51E-04
       N       E                     dE             d eps       ncg     rms          rms(c)
DAV:   1    -0.877283053378E+03    0.25057E-02   -0.53727E-04  4239   0.843E-02    0.171E-02
RMM:   2    -0.877283073197E+03   -0.19819E-04   -0.24123E-04  2443   0.314E-02
   14 T=     4. E= -.87721112E+03 F= -.87728307E+03 E0= -.87728307E+03  EK= 0.66859E-01 SP= 0.51E-02 SK= 0.13E-04
       N       E                     dE             d eps       ncg     rms          rms(c)
DAV:   1    -0.877280517642E+03    0.25357E-02   -0.64118E-04  4358   0.788E-02    0.113E-02
RMM:   2    -0.877280537865E+03   -0.20223E-04   -0.21931E-04  2425   0.297E-02
   15 T=     4. E= -.87721109E+03 F= -.87728054E+03 E0= -.87728054E+03  EK= 0.64260E-01 SP= 0.52E-02 SK= 0.81E-06
       N       E                     dE             d eps       ncg     rms          rms(c)
DAV:   1    -0.877278091253E+03    0.24264E-02   -0.48747E-04  4388   0.743E-02    0.150E-02
RMM:   2    -0.877278105699E+03   -0.14445E-04   -0.20596E-04  2401   0.282E-02
   16 T=     4. E= -.87721107E+03 F= -.87727811E+03 E0= -.87727811E+03  EK= 0.62019E-01 SP= 0.50E-02 SK= 0.41E-04
       N       E                     dE             d eps       ncg     rms          rms(c)
DAV:   1    -0.877275892960E+03    0.21983E-02   -0.43925E-04  4192   0.754E-02    0.155E-02
RMM:   2    -0.877275908221E+03   -0.15261E-04   -0.19895E-04  2359   0.291E-02
   17 T=     4. E= -.87721106E+03 F= -.87727591E+03 E0= -.87727591E+03  EK= 0.60293E-01 SP= 0.44E-02 SK= 0.16E-03
       N       E                     dE             d eps       ncg     rms          rms(c)
DAV:   1    -0.877274036424E+03    0.18565E-02   -0.49288E-04  4128   0.733E-02    0.109E-02
RMM:   2    -0.877274053804E+03   -0.17380E-04   -0.18714E-04  2377   0.280E-02
   18 T=     4. E= -.87721105E+03 F= -.87727405E+03 E0= -.87727405E+03  EK= 0.59218E-01 SP= 0.34E-02 SK= 0.38E-03
       N       E                     dE             d eps       ncg     rms          rms(c)
DAV:   1    -0.877272619654E+03    0.14168E-02   -0.39248E-04  4065   0.699E-02    0.154E-02
RMM:   2    -0.877272634178E+03   -0.14524E-04   -0.18589E-04  2351   0.268E-02
   19 T=     4. E= -.87721104E+03 F= -.87727263E+03 E0= -.87727263E+03  EK= 0.58901E-01 SP= 0.20E-02 SK= 0.71E-03
       N       E                     dE             d eps       ncg     rms          rms(c)
DAV:   1    -0.877271704579E+03    0.91508E-03   -0.38940E-04  4128   0.703E-02    0.135E-02
RMM:   2    -0.877271716439E+03   -0.11860E-04   -0.17222E-04  2329   0.267E-02
   20 T=     4. E= -.87721104E+03 F= -.87727172E+03 E0= -.87727172E+03  EK= 0.59420E-01 SP= 0.11E-03 SK= 0.11E-02
       N       E                     dE             d eps       ncg     rms          rms(c)
DAV:   1    -0.877271310193E+03    0.39439E-03   -0.46635E-04  4149   0.723E-02    0.113E-02
RMM:   2    -0.877271327025E+03   -0.16832E-04   -0.18574E-04  2315   0.275E-02
   21 T=     4. E= -.87721105E+03 F= -.87727133E+03 E0= -.87727133E+03  EK= 0.60822E-01 SP= -.22E-02 SK= 0.16E-02
       N       E                     dE             d eps       ncg     rms          rms(c)
DAV:   1    -0.877271448597E+03   -0.13840E-03   -0.43246E-04  4098   0.712E-02    0.134E-02
RMM:   2    -0.877271463517E+03   -0.14920E-04   -0.18491E-04  2323   0.268E-02
   22 T=     4. E= -.87721107E+03 F= -.87727146E+03 E0= -.87727146E+03  EK= 0.63124E-01 SP= -.49E-02 SK= 0.22E-02
       N       E                     dE             d eps       ncg     rms          rms(c)
DAV:   1    -0.877272081882E+03   -0.63329E-03   -0.41781E-04  4145   0.720E-02    0.134E-02
RMM:   2    -0.877272094261E+03   -0.12379E-04   -0.18994E-04  2336   0.271E-02
   23 T=     4. E= -.87721109E+03 F= -.87727209E+03 E0= -.87727209E+03  EK= 0.66292E-01 SP= -.79E-02 SK= 0.26E-02
       N       E                     dE             d eps       ncg     rms          rms(c)
DAV:   1    -0.877273132165E+03   -0.10503E-02   -0.57314E-04  4386   0.781E-02    0.110E-02
RMM:   2    -0.877273150561E+03   -0.18397E-04   -0.21031E-04  2383   0.290E-02
   24 T=     5. E= -.87721112E+03 F= -.87727315E+03 E0= -.87727315E+03  EK= 0.70251E-01 SP= -.11E-01 SK= 0.30E-02
       N       E                     dE             d eps       ncg     rms          rms(c)
DAV:   1    -0.877274517294E+03   -0.13851E-02   -0.53463E-04  4218   0.785E-02    0.126E-02
RMM:   2    -0.877274535676E+03   -0.18382E-04   -0.21641E-04  2383   0.288E-02
   25 T=     5. E= -.87721115E+03 F= -.87727454E+03 E0= -.87727454E+03  EK= 0.74877E-01 SP= -.15E-01 SK= 0.32E-02
       N       E                     dE             d eps       ncg     rms          rms(c)
DAV:   1    -0.877276123492E+03   -0.16062E-02   -0.49429E-04  4290   0.788E-02    0.127E-02
RMM:   2    -0.877276137063E+03   -0.13571E-04   -0.20756E-04  2388   0.287E-02
   26 T=     5. E= -.87721119E+03 F= -.87727614E+03 E0= -.87727614E+03  EK= 0.79980E-01 SP= -.18E-01 SK= 0.32E-02
       N       E                     dE             d eps       ncg     rms          rms(c)
DAV:   1    -0.877277800088E+03   -0.16766E-02   -0.58032E-04  4378   0.856E-02    0.123E-02
RMM:   2    -0.877277821789E+03   -0.21702E-04   -0.25059E-04  2444   0.314E-02
   27 T=     6. E= -.87721123E+03 F= -.87727782E+03 E0= -.87727782E+03  EK= 0.85316E-01 SP= -.22E-01 SK= 0.29E-02
       N       E                     dE             d eps       ncg     rms          rms(c)
DAV:   1    -0.877279434122E+03   -0.16340E-02   -0.59536E-04  4380   0.873E-02    0.116E-02
RMM:   2    -0.877279456207E+03   -0.22085E-04   -0.25765E-04  2478   0.316E-02
   28 T=     6. E= -.87721127E+03 F= -.87727946E+03 E0= -.87727946E+03  EK= 0.90604E-01 SP= -.25E-01 SK= 0.25E-02
       N       E                     dE             d eps       ncg     rms          rms(c)
DAV:   1    -0.877280903106E+03   -0.14690E-02   -0.58646E-04  4495   0.871E-02    0.128E-02
RMM:   2    -0.877280921112E+03   -0.18006E-04   -0.25391E-04  2470   0.314E-02
   29 T=     6. E= -.87721131E+03 F= -.87728092E+03 E0= -.87728092E+03  EK= 0.95531E-01 SP= -.28E-01 SK= 0.19E-02
       N       E                     dE             d eps       ncg     rms          rms(c)
DAV:   1    -0.877282090551E+03   -0.11874E-02   -0.72396E-04  4740   0.924E-02    0.116E-02
RMM:   2    -0.877282115068E+03   -0.24517E-04   -0.29476E-04  2589   0.337E-02
   30 T=     6. E= -.87721134E+03 F= -.87728212E+03 E0= -.87728212E+03  EK= 0.99777E-01 SP= -.30E-01 SK= 0.12E-02
       N       E                     dE             d eps       ncg     rms          rms(c)
DAV:   1    -0.877282948104E+03   -0.85755E-03   -0.80831E-04  4573   0.941E-02    0.102E-02
RMM:   2    -0.877282975278E+03   -0.27174E-04   -0.30300E-04  2616   0.345E-02
   31 T=     7. E= -.87721137E+03 F= -.87728298E+03 E0= -.87728298E+03  EK= 0.10308E+00 SP= -.32E-01 SK= 0.64E-03
       N       E                     dE             d eps       ncg     rms          rms(c)
DAV:   1    -0.877283457548E+03   -0.50944E-03   -0.61768E-04  4607   0.915E-02    0.115E-02
RMM:   2    -0.877283479738E+03   -0.22190E-04   -0.28479E-04  2554   0.331E-02
   32 T=     7. E= -.87721138E+03 F= -.87728348E+03 E0= -.87728348E+03  EK= 0.10523E+00 SP= -.33E-01 SK= 0.20E-03
       N       E                     dE             d eps       ncg     rms          rms(c)
DAV:   1    -0.877283626307E+03   -0.16876E-03   -0.76809E-04  4879   0.918E-02    0.135E-02
RMM:   2    -0.877283648391E+03   -0.22083E-04   -0.28837E-04  2554   0.336E-02
   33 T=     7. E= -.87721139E+03 F= -.87728365E+03 E0= -.87728365E+03  EK= 0.10611E+00 SP= -.34E-01 SK= 0.77E-05
       N       E                     dE             d eps       ncg     rms          rms(c)
DAV:   1    -0.877283518203E+03    0.10810E-03   -0.78979E-04  4675   0.946E-02    0.111E-02
RMM:   2    -0.877283546906E+03   -0.28702E-04   -0.31639E-04  2621   0.356E-02
   34 T=     7. E= -.87721140E+03 F= -.87728355E+03 E0= -.87728355E+03  EK= 0.10575E+00 SP= -.34E-01 SK= 0.78E-04
       N       E                     dE             d eps       ncg     rms          rms(c)
DAV:   1    -0.877283246954E+03    0.27125E-03   -0.65478E-04  4787   0.897E-02    0.103E-02
RMM:   2    -0.877283271195E+03   -0.24241E-04   -0.28765E-04  2590   0.332E-02
   35 T=     7. E= -.87721138E+03 F= -.87728327E+03 E0= -.87728327E+03  EK= 0.10426E+00 SP= -.33E-01 SK= 0.40E-03
       N       E                     dE             d eps       ncg     rms          rms(c)
DAV:   1    -0.877282925731E+03    0.32122E-03   -0.73895E-04  4756   0.874E-02    0.123E-02
RMM:   2    -0.877282947172E+03   -0.21441E-04   -0.28593E-04  2558   0.335E-02
   36 T=     7. E= -.87721136E+03 F= -.87728295E+03 E0= -.87728295E+03  EK= 0.10185E+00 SP= -.31E-01 SK= 0.94E-03
       N       E                     dE             d eps       ncg     rms          rms(c)
DAV:   1    -0.877282675226E+03    0.25051E-03   -0.73390E-04  4576   0.893E-02    0.814E-03
RMM:   2    -0.877282702814E+03   -0.27588E-04   -0.30136E-04  2554   0.347E-02
   37 T=     6. E= -.87721135E+03 F= -.87728270E+03 E0= -.87728270E+03  EK= 0.98769E-01 SP= -.29E-01 SK= 0.16E-02
       N       E                     dE             d eps       ncg     rms          rms(c)
DAV:   1    -0.877282636498E+03    0.38728E-04   -0.65278E-04  4672   0.845E-02    0.106E-02
RMM:   2    -0.877282657044E+03   -0.20546E-04   -0.25573E-04  2505   0.320E-02
   38 T=     6. E= -.87721132E+03 F= -.87728266E+03 E0= -.87728266E+03  EK= 0.95310E-01 SP= -.26E-01 SK= 0.23E-02
       N       E                     dE             d eps       ncg     rms          rms(c)
DAV:   1    -0.877282890669E+03   -0.25417E-03   -0.57867E-04  4543   0.802E-02    0.129E-02
RMM:   2    -0.877282906604E+03   -0.15935E-04   -0.23579E-04  2473   0.308E-02
   39 T=     6. E= -.87721131E+03 F= -.87728291E+03 E0= -.87728291E+03  EK= 0.91713E-01 SP= -.23E-01 SK= 0.30E-02
       N       E                     dE             d eps       ncg     rms          rms(c)
DAV:   1    -0.877283486445E+03   -0.59578E-03   -0.65692E-04  4506   0.830E-02    0.102E-02
RMM:   2    -0.877283510640E+03   -0.24195E-04   -0.27239E-04  2501   0.331E-02
   40 T=     6. E= -.87721130E+03 F= -.87728351E+03 E0= -.87728351E+03  EK= 0.88186E-01 SP= -.20E-01 SK= 0.36E-02
       N       E                     dE             d eps       ncg     rms          rms(c)
DAV:   1    -0.877284475384E+03   -0.98894E-03   -0.63072E-04  4437   0.795E-02    0.103E-02
RMM:   2    -0.877284495495E+03   -0.20111E-04   -0.23968E-04  2462   0.308E-02
   41 T=     6. E= -.87721128E+03 F= -.87728450E+03 E0= -.87728450E+03  EK= 0.84885E-01 SP= -.16E-01 SK= 0.41E-02
       N       E                     dE             d eps       ncg     rms          rms(c)
DAV:   1    -0.877285830504E+03   -0.13551E-02   -0.47982E-04  4351   0.773E-02    0.107E-02
RMM:   2    -0.877285846179E+03   -0.15675E-04   -0.21775E-04  2441   0.296E-02
   42 T=     5. E= -.87721127E+03 F= -.87728585E+03 E0= -.87728585E+03  EK= 0.81887E-01 SP= -.12E-01 SK= 0.44E-02
       N       E                     dE             d eps       ncg     rms          rms(c)
DAV:   1    -0.877287491333E+03   -0.16608E-02   -0.59425E-04  4407   0.784E-02    0.893E-03
RMM:   2    -0.877287510612E+03   -0.19279E-04   -0.22697E-04  2435   0.304E-02
   43 T=     5. E= -.87721127E+03 F= -.87728751E+03 E0= -.87728751E+03  EK= 0.79216E-01 SP= -.76E-02 SK= 0.46E-02
       N       E                     dE             d eps       ncg     rms          rms(c)
DAV:   1    -0.877289382903E+03   -0.18916E-02   -0.47928E-04  4146   0.783E-02    0.941E-03
RMM:   2    -0.877289403148E+03   -0.20245E-04   -0.23758E-04  2449   0.304E-02
   44 T=     5. E= -.87721127E+03 F= -.87728940E+03 E0= -.87728940E+03  EK= 0.76850E-01 SP= -.34E-02 SK= 0.47E-02
       N       E                     dE             d eps       ncg     rms          rms(c)
DAV:   1    -0.877291404837E+03   -0.20219E-02   -0.43052E-04  4190   0.778E-02    0.926E-03
RMM:   2    -0.877291420590E+03   -0.15753E-04   -0.20382E-04  2405   0.287E-02
   45 T=     5. E= -.87721127E+03 F= -.87729142E+03 E0= -.87729142E+03  EK= 0.74730E-01 SP= 0.84E-03 SK= 0.46E-02
       N       E                     dE             d eps       ncg     rms          rms(c)
DAV:   1    -0.877293429900E+03   -0.20251E-02   -0.43781E-04  4135   0.771E-02    0.966E-03
RMM:   2    -0.877293447153E+03   -0.17253E-04   -0.21210E-04  2391   0.293E-02
   46 T=     5. E= -.87721127E+03 F= -.87729345E+03 E0= -.87729345E+03  EK= 0.72781E-01 SP= 0.50E-02 SK= 0.44E-02
       N       E                     dE             d eps       ncg     rms          rms(c)
DAV:   1    -0.877295345648E+03   -0.19157E-02   -0.40321E-04  4167   0.794E-02    0.105E-02
RMM:   2    -0.877295366352E+03   -0.20705E-04   -0.24921E-04  2448   0.306E-02
   47 T=     5. E= -.87721127E+03 F= -.87729537E+03 E0= -.87729537E+03  EK= 0.70920E-01 SP= 0.90E-02 SK= 0.42E-02
       N       E                     dE             d eps       ncg     rms          rms(c)
DAV:   1    -0.877297055247E+03   -0.17096E-02   -0.44396E-04  4222   0.807E-02    0.956E-03
RMM:   2    -0.877297073119E+03   -0.17872E-04   -0.22635E-04  2449   0.301E-02
   48 T=     4. E= -.87721127E+03 F= -.87729707E+03 E0= -.87729707E+03  EK= 0.69080E-01 SP= 0.13E-01 SK= 0.38E-02
       N       E                     dE             d eps       ncg     rms          rms(c)
DAV:   1    -0.877298458246E+03   -0.14030E-02   -0.46616E-04  4349   0.787E-02    0.971E-03
RMM:   2    -0.877298475419E+03   -0.17173E-04   -0.21322E-04  2397   0.293E-02
   49 T=     4. E= -.87721127E+03 F= -.87729848E+03 E0= -.87729848E+03  EK= 0.67204E-01 SP= 0.17E-01 SK= 0.34E-02
       N       E                     dE             d eps       ncg     rms          rms(c)
DAV:   1    -0.877299487669E+03   -0.10294E-02   -0.40701E-04  4119   0.801E-02    0.109E-02
RMM:   2    -0.877299507401E+03   -0.19732E-04   -0.25061E-04  2439   0.312E-02
   50 T=     4. E= -.87721127E+03 F= -.87729951E+03 E0= -.87729951E+03  EK= 0.65256E-01 SP= 0.20E-01 SK= 0.29E-02
       N       E                     dE             d eps       ncg     rms          rms(c)
DAV:   1    -0.877300114708E+03   -0.62704E-03   -0.37132E-04  3990   0.815E-02    0.985E-03
RMM:   2    -0.877300133518E+03   -0.18811E-04   -0.23777E-04  2441   0.306E-02
   51 T=     4. E= -.87721126E+03 F= -.87730013E+03 E0= -.87730013E+03  EK= 0.63232E-01 SP= 0.23E-01 SK= 0.24E-02
       N       E                     dE             d eps       ncg     rms          rms(c)
DAV:   1    -0.877300326851E+03   -0.21214E-03   -0.47931E-04  4352   0.788E-02    0.102E-02
RMM:   2    -0.877300343213E+03   -0.16363E-04   -0.21329E-04  2413   0.292E-02
   52 T=     4. E= -.87721125E+03 F= -.87730034E+03 E0= -.87730034E+03  EK= 0.61158E-01 SP= 0.26E-01 SK= 0.18E-02
       N       E                     dE             d eps       ncg     rms          rms(c)
DAV:   1    -0.877300142665E+03    0.18419E-03   -0.42768E-04  4202   0.784E-02    0.123E-02
RMM:   2    -0.877300159642E+03   -0.16977E-04   -0.23981E-04  2414   0.309E-02
   53 T=     4. E= -.87721124E+03 F= -.87730016E+03 E0= -.87730016E+03  EK= 0.59067E-01 SP= 0.29E-01 SK= 0.13E-02
       N       E                     dE             d eps       ncg     rms          rms(c)
DAV:   1    -0.877299610076E+03    0.53259E-03   -0.42079E-04  4039   0.803E-02    0.103E-02
RMM:   2    -0.877299630102E+03   -0.20026E-04   -0.25026E-04  2433   0.316E-02
   54 T=     4. E= -.87721123E+03 F= -.87729963E+03 E0= -.87729963E+03  EK= 0.57028E-01 SP= 0.31E-01 SK= 0.82E-03
       N       E                     dE             d eps       ncg     rms          rms(c)
DAV:   1    -0.877298804456E+03    0.80562E-03   -0.47971E-04  4253   0.775E-02    0.112E-02
RMM:   2    -0.877298820568E+03   -0.16111E-04   -0.21983E-04  2427   0.296E-02
   55 T=     4. E= -.87721121E+03 F= -.87729882E+03 E0= -.87729882E+03  EK= 0.55124E-01 SP= 0.32E-01 SK= 0.41E-03
       N       E                     dE             d eps       ncg     rms          rms(c)
DAV:   1    -0.877297797859E+03    0.10066E-02   -0.44365E-04  4294   0.754E-02    0.132E-02
RMM:   2    -0.877297811556E+03   -0.13697E-04   -0.22574E-04  2413   0.299E-02
   56 T=     3. E= -.87721120E+03 F= -.87729781E+03 E0= -.87729781E+03  EK= 0.53433E-01 SP= 0.33E-01 SK= 0.12E-03
       N       E                     dE             d eps       ncg     rms          rms(c)
DAV:   1    -0.877296680298E+03    0.11176E-02   -0.60425E-04  4570   0.780E-02    0.109E-02
RMM:   2    -0.877296697011E+03   -0.16714E-04   -0.22385E-04  2429   0.301E-02
   57 T=     3. E= -.87721119E+03 F= -.87729670E+03 E0= -.87729670E+03  EK= 0.52049E-01 SP= 0.33E-01 SK= 0.22E-05
       N       E                     dE             d eps       ncg     rms          rms(c)
DAV:   1    -0.877295548192E+03    0.11321E-02   -0.55267E-04  4213   0.755E-02    0.943E-03
RMM:   2    -0.877295566316E+03   -0.18124E-04   -0.21920E-04  2436   0.299E-02
   58 T=     3. E= -.87721118E+03 F= -.87729557E+03 E0= -.87729557E+03  EK= 0.51069E-01 SP= 0.33E-01 SK= 0.75E-04
       N       E                     dE             d eps       ncg     rms          rms(c)
DAV:   1    -0.877294492303E+03    0.10559E-02   -0.39316E-04  4061   0.720E-02    0.108E-02
RMM:   2    -0.877294506564E+03   -0.14261E-04   -0.20526E-04  2431   0.286E-02
   59 T=     3. E= -.87721118E+03 F= -.87729451E+03 E0= -.87729451E+03  EK= 0.50577E-01 SP= 0.32E-01 SK= 0.36E-03
       N       E                     dE             d eps       ncg     rms          rms(c)
DAV:   1    -0.877293581422E+03    0.91088E-03   -0.42013E-04  4113   0.722E-02    0.106E-02
RMM:   2    -0.877293595638E+03   -0.14216E-04   -0.20155E-04  2406   0.288E-02
   60 T=     3. E= -.87721118E+03 F= -.87729360E+03 E0= -.87729360E+03  EK= 0.50654E-01 SP= 0.31E-01 SK= 0.88E-03
       N       E                     dE             d eps       ncg     rms          rms(c)
DAV:   1    -0.877292870534E+03    0.71089E-03   -0.53174E-04  4378   0.735E-02    0.872E-03
RMM:   2    -0.877292887883E+03   -0.17349E-04   -0.20690E-04  2420   0.288E-02
   61 T=     3. E= -.87721119E+03 F= -.87729289E+03 E0= -.87729289E+03  EK= 0.51369E-01 SP= 0.29E-01 SK= 0.16E-02
       N       E                     dE             d eps       ncg     rms          rms(c)
DAV:   1    -0.877292402533E+03    0.46800E-03   -0.38271E-04  3911   0.717E-02    0.102E-02
RMM:   2    -0.877292418532E+03   -0.15999E-04   -0.20912E-04  2434   0.285E-02
   62 T=     3. E= -.87721120E+03 F= -.87729242E+03 E0= -.87729242E+03  EK= 0.52777E-01 SP= 0.26E-01 SK= 0.25E-02
       N       E                     dE             d eps       ncg     rms          rms(c)
DAV:   1    -0.877292184272E+03    0.21826E-03   -0.40297E-04  4196   0.713E-02    0.111E-02
RMM:   2    -0.877292197732E+03   -0.13460E-04   -0.19868E-04  2412   0.281E-02
   63 T=     4. E= -.87721122E+03 F= -.87729220E+03 E0= -.87729220E+03  EK= 0.54908E-01 SP= 0.23E-01 SK= 0.35E-02
       N       E                     dE             d eps       ncg     rms          rms(c)
DAV:   1    -0.877292185256E+03   -0.98404E-06   -0.48345E-04  4178   0.757E-02    0.987E-03
RMM:   2    -0.877292204102E+03   -0.18846E-04   -0.23096E-04  2431   0.303E-02
   64 T=     4. E= -.87721125E+03 F= -.87729220E+03 E0= -.87729220E+03  EK= 0.57767E-01 SP= 0.19E-01 SK= 0.45E-02
       N       E                     dE             d eps       ncg     rms          rms(c)
DAV:   1    -0.877292373374E+03   -0.18812E-03   -0.49416E-04  4250   0.767E-02    0.957E-03
RMM:   2    -0.877292391071E+03   -0.17698E-04   -0.22100E-04  2428   0.297E-02
   65 T=     4. E= -.87721127E+03 F= -.87729239E+03 E0= -.87729239E+03  EK= 0.61334E-01 SP= 0.14E-01 SK= 0.55E-02
       N       E                     dE             d eps       ncg     rms          rms(c)
DAV:   1    -0.877292670953E+03   -0.29758E-03   -0.39392E-04  4027   0.762E-02    0.114E-02
RMM:   2    -0.877292685765E+03   -0.14812E-04   -0.21412E-04  2441   0.293E-02
   66 T=     4. E= -.87721130E+03 F= -.87729269E+03 E0= -.87729269E+03  EK= 0.65544E-01 SP= 0.95E-02 SK= 0.64E-02
       N       E                     dE             d eps       ncg     rms          rms(c)
DAV:   1    -0.877292970360E+03   -0.29941E-03   -0.48131E-04  4284   0.810E-02    0.111E-02
RMM:   2    -0.877292990196E+03   -0.19836E-04   -0.25565E-04  2471   0.319E-02
   67 T=     5. E= -.87721134E+03 F= -.87729299E+03 E0= -.87729299E+03  EK= 0.70281E-01 SP= 0.44E-02 SK= 0.70E-02
       N       E                     dE             d eps       ncg     rms          rms(c)
DAV:   1    -0.877293162767E+03   -0.19241E-03   -0.52570E-04  4271   0.854E-02    0.104E-02
RMM:   2    -0.877293186348E+03   -0.23581E-04   -0.28506E-04  2517   0.331E-02
   68 T=     5. E= -.87721137E+03 F= -.87729319E+03 E0= -.87729319E+03  EK= 0.75386E-01 SP= -.81E-03 SK= 0.72E-02
       N       E                     dE             d eps       ncg     rms          rms(c)
DAV:   1    -0.877293132119E+03    0.30648E-04   -0.56232E-04  4532   0.855E-02    0.119E-02
RMM:   2    -0.877293151304E+03   -0.19184E-04   -0.26436E-04  2507   0.320E-02
   69 T=     5. E= -.87721140E+03 F= -.87729315E+03 E0= -.87729315E+03  EK= 0.80651E-01 SP= -.61E-02 SK= 0.72E-02
       N       E                     dE             d eps       ncg     rms          rms(c)
DAV:   1    -0.877292743253E+03    0.38887E-03   -0.66866E-04  4583   0.891E-02    0.135E-02
RMM:   2    -0.877292764293E+03   -0.21040E-04   -0.30220E-04  2560   0.343E-02
   70 T=     6. E= -.87721143E+03 F= -.87729276E+03 E0= -.87729276E+03  EK= 0.85817E-01 SP= -.11E-01 SK= 0.68E-02
       N       E                     dE             d eps       ncg     rms          rms(c)
DAV:   1    -0.877291893363E+03    0.84989E-03   -0.79224E-04  4878   0.957E-02    0.102E-02
RMM:   2    -0.877291920400E+03   -0.27036E-04   -0.31877E-04  2654   0.355E-02
   71 T=     6. E= -.87721147E+03 F= -.87729192E+03 E0= -.87729192E+03  EK= 0.90612E-01 SP= -.16E-01 SK= 0.60E-02
       N       E                     dE             d eps       ncg     rms          rms(c)
DAV:   1    -0.877290513202E+03    0.13802E-02   -0.60972E-04  4620   0.928E-02    0.116E-02
RMM:   2    -0.877290538392E+03   -0.25190E-04   -0.31684E-04  2642   0.350E-02
   72 T=     6. E= -.87721148E+03 F= -.87729054E+03 E0= -.87729054E+03  EK= 0.94768E-01 SP= -.21E-01 SK= 0.51E-02
       N       E                     dE             d eps       ncg     rms          rms(c)
DAV:   1    -0.877288565713E+03    0.19475E-02   -0.71799E-04  4848   0.924E-02    0.151E-02
RMM:   2    -0.877288586924E+03   -0.21211E-04   -0.33287E-04  2663   0.356E-02
   73 T=     6. E= -.87721149E+03 F= -.87728859E+03 E0= -.87728859E+03  EK= 0.98026E-01 SP= -.25E-01 SK= 0.40E-02
       N       E                     dE             d eps       ncg     rms          rms(c)
DAV:   1    -0.877286045685E+03    0.25200E-02   -0.91823E-04  4968   0.101E-01    0.108E-02
RMM:   2    -0.877286077197E+03   -0.31513E-04   -0.37043E-04  2839   0.379E-02
   74 T=     7. E= -.87721150E+03 F= -.87728608E+03 E0= -.87728608E+03  EK= 0.10021E+00 SP= -.29E-01 SK= 0.30E-02
       N       E                     dE             d eps       ncg     rms          rms(c)
DAV:   1    -0.877283042866E+03    0.30028E-02   -0.86956E-04  4893   0.963E-02    0.103E-02
RMM:   2    -0.877283071001E+03   -0.28135E-04   -0.32883E-04  2715   0.362E-02
   75 T=     7. E= -.87721149E+03 F= -.87728307E+03 E0= -.87728307E+03  EK= 0.10125E+00 SP= -.32E-01 SK= 0.20E-02
       N       E                     dE             d eps       ncg     rms          rms(c)
DAV:   1    -0.877279664978E+03    0.33779E-02   -0.62398E-04  4665   0.910E-02    0.143E-02
RMM:   2    -0.877279686837E+03   -0.21859E-04   -0.33356E-04  2644   0.354E-02
   76 T=     7. E= -.87721147E+03 F= -.87727969E+03 E0= -.87727969E+03  EK= 0.10114E+00 SP= -.34E-01 SK= 0.13E-02
       N       E                     dE             d eps       ncg     rms          rms(c)
DAV:   1    -0.877276050540E+03    0.36144E-02   -0.96166E-04  5090   0.972E-02    0.113E-02
RMM:   2    -0.877276080132E+03   -0.29592E-04   -0.35613E-04  2762   0.374E-02
   77 T=     7. E= -.87721146E+03 F= -.87727608E+03 E0= -.87727608E+03  EK= 0.10001E+00 SP= -.36E-01 SK= 0.67E-03
       N       E                     dE             d eps       ncg     rms          rms(c)
DAV:   1    -0.877272397657E+03    0.36529E-02   -0.86222E-04  4797   0.932E-02    0.915E-03
RMM:   2    -0.877272426670E+03   -0.29014E-04   -0.32652E-04  2725   0.362E-02
   78 T=     6. E= -.87721143E+03 F= -.87727243E+03 E0= -.87727243E+03  EK= 0.98078E-01 SP= -.37E-01 SK= 0.29E-03
       N       E                     dE             d eps       ncg     rms          rms(c)
DAV:   1    -0.877268895655E+03    0.35020E-02   -0.63848E-04  4661   0.856E-02    0.125E-02
RMM:   2    -0.877268915617E+03   -0.19962E-04   -0.28587E-04  2534   0.334E-02
   79 T=     6. E= -.87721139E+03 F= -.87726892E+03 E0= -.87726892E+03  EK= 0.95597E-01 SP= -.38E-01 SK= 0.82E-04
       N       E                     dE             d eps       ncg     rms          rms(c)
DAV:   1    -0.877265708620E+03    0.31870E-02   -0.70597E-04  4743   0.867E-02    0.126E-02
RMM:   2    -0.877265731441E+03   -0.22821E-04   -0.29767E-04  2543   0.345E-02
   80 T=     6. E= -.87721137E+03 F= -.87726573E+03 E0= -.87726573E+03  EK= 0.92841E-01 SP= -.38E-01 SK= 0.45E-05
       N       E                     dE             d eps       ncg     rms          rms(c)
DAV:   1    -0.877262996522E+03    0.27121E-02   -0.74639E-04  4783   0.852E-02    0.914E-03
RMM:   2    -0.877263021123E+03   -0.24602E-04   -0.27385E-04  2517   0.333E-02
   81 T=     6. E= -.87721134E+03 F= -.87726302E+03 E0= -.87726302E+03  EK= 0.90081E-01 SP= -.38E-01 SK= 0.14E-04
       N       E                     dE             d eps       ncg     rms          rms(c)
DAV:   1    -0.877260880993E+03    0.21155E-02   -0.55077E-04  4450   0.794E-02    0.114E-02
RMM:   2    -0.877260898988E+03   -0.17994E-04   -0.24673E-04  2498   0.313E-02
   82 T=     6. E= -.87721132E+03 F= -.87726090E+03 E0= -.87726090E+03  EK= 0.87533E-01 SP= -.38E-01 SK= 0.72E-04
       N       E                     dE             d eps       ncg     rms          rms(c)
DAV:   1    -0.877259413071E+03    0.14679E-02   -0.57636E-04  4508   0.787E-02    0.126E-02
RMM:   2    -0.877259430571E+03   -0.17500E-04   -0.25124E-04  2495   0.318E-02
   83 T=     6. E= -.87721130E+03 F= -.87725943E+03 E0= -.87725943E+03  EK= 0.85346E-01 SP= -.37E-01 SK= 0.15E-03
       N       E                     dE             d eps       ncg     rms          rms(c)
DAV:   1    -0.877258606091E+03    0.80698E-03   -0.74083E-04  4663   0.816E-02    0.803E-03
RMM:   2    -0.877258628406E+03   -0.22315E-04   -0.25098E-04  2489   0.319E-02
   84 T=     5. E= -.87721130E+03 F= -.87725863E+03 E0= -.87725863E+03  EK= 0.83605E-01 SP= -.37E-01 SK= 0.23E-03
       N       E                     dE             d eps       ncg     rms          rms(c)
DAV:   1    -0.877258433541E+03    0.17255E-03   -0.56000E-04  4359   0.784E-02    0.107E-02
RMM:   2    -0.877258451617E+03   -0.18076E-04   -0.23566E-04  2471   0.307E-02
   85 T=     5. E= -.87721130E+03 F= -.87725845E+03 E0= -.87725845E+03  EK= 0.82325E-01 SP= -.35E-01 SK= 0.32E-03
       N       E                     dE             d eps       ncg     rms          rms(c)
DAV:   1    -0.877258806199E+03   -0.37266E-03   -0.49090E-04  4379   0.780E-02    0.123E-02
RMM:   2    -0.877258820655E+03   -0.14455E-04   -0.21932E-04  2433   0.300E-02
   86 T=     5. E= -.87721130E+03 F= -.87725882E+03 E0= -.87725882E+03  EK= 0.81455E-01 SP= -.34E-01 SK= 0.39E-03
       N       E                     dE             d eps       ncg     rms          rms(c)
DAV:   1    -0.877259598181E+03   -0.79198E-03   -0.60590E-04  4466   0.821E-02    0.885E-03
RMM:   2    -0.877259619856E+03   -0.21675E-04   -0.24985E-04  2465   0.317E-02
   87 T=     5. E= -.87721131E+03 F= -.87725962E+03 E0= -.87725962E+03  EK= 0.80903E-01 SP= -.33E-01 SK= 0.46E-03
       N       E                     dE             d eps       ncg     rms          rms(c)
DAV:   1    -0.877260689802E+03   -0.10916E-02   -0.55564E-04  4305   0.823E-02    0.105E-02
RMM:   2    -0.877260709887E+03   -0.20085E-04   -0.24909E-04  2489   0.313E-02
   88 T=     5. E= -.87721132E+03 F= -.87726071E+03 E0= -.87726071E+03  EK= 0.80542E-01 SP= -.32E-01 SK= 0.53E-03
       N       E                     dE             d eps       ncg     rms          rms(c)
DAV:   1    -0.877261931239E+03   -0.12414E-02   -0.47121E-04  4314   0.831E-02    0.110E-02
RMM:   2    -0.877261947755E+03   -0.16516E-04   -0.22880E-04  2468   0.305E-02
   89 T=     5. E= -.87721133E+03 F= -.87726195E+03 E0= -.87726195E+03  EK= 0.80241E-01 SP= -.30E-01 SK= 0.59E-03
       N       E                     dE             d eps       ncg     rms          rms(c)
DAV:   1    -0.877263165294E+03   -0.12341E-02   -0.55653E-04  4410   0.851E-02    0.909E-03
RMM:   2    -0.877263188027E+03   -0.22733E-04   -0.26541E-04  2489   0.323E-02
   90 T=     5. E= -.87721135E+03 F= -.87726319E+03 E0= -.87726319E+03  EK= 0.79863E-01 SP= -.29E-01 SK= 0.66E-03
       N       E                     dE             d eps       ncg     rms          rms(c)
DAV:   1    -0.877264279217E+03   -0.11139E-02   -0.52406E-04  4284   0.875E-02    0.108E-02
RMM:   2    -0.877264301648E+03   -0.22431E-04   -0.27784E-04  2540   0.326E-02
   91 T=     5. E= -.87721136E+03 F= -.87726430E+03 E0= -.87726430E+03  EK= 0.79291E-01 SP= -.27E-01 SK= 0.71E-03
       N       E                     dE             d eps       ncg     rms          rms(c)
DAV:   1    -0.877265171269E+03   -0.89205E-03   -0.50481E-04  4486   0.884E-02    0.992E-03
RMM:   2    -0.877265191545E+03   -0.20276E-04   -0.25532E-04  2506   0.322E-02
   92 T=     5. E= -.87721137E+03 F= -.87726519E+03 E0= -.87726519E+03  EK= 0.78457E-01 SP= -.25E-01 SK= 0.76E-03
       N       E                     dE             d eps       ncg     rms          rms(c)
DAV:   1    -0.877265767049E+03   -0.59578E-03   -0.56599E-04  4633   0.870E-02    0.974E-03
RMM:   2    -0.877265789612E+03   -0.22563E-04   -0.26943E-04  2519   0.323E-02
   93 T=     5. E= -.87721137E+03 F= -.87726579E+03 E0= -.87726579E+03  EK= 0.77319E-01 SP= -.24E-01 SK= 0.78E-03
       N       E                     dE             d eps       ncg     rms          rms(c)
DAV:   1    -0.877266047402E+03   -0.28035E-03   -0.54712E-04  4621   0.893E-02    0.122E-02
RMM:   2    -0.877266070689E+03   -0.23287E-04   -0.29539E-04  2542   0.336E-02
   94 T=     5. E= -.87721138E+03 F= -.87726607E+03 E0= -.87726607E+03  EK= 0.75879E-01 SP= -.22E-01 SK= 0.77E-03
       N       E                     dE             d eps       ncg     rms          rms(c)
DAV:   1    -0.877266022518E+03    0.24883E-04   -0.56956E-04  4547   0.904E-02    0.872E-03
RMM:   2    -0.877266047312E+03   -0.24794E-04   -0.28556E-04  2532   0.337E-02
   95 T=     5. E= -.87721137E+03 F= -.87726605E+03 E0= -.87726605E+03  EK= 0.74203E-01 SP= -.20E-01 SK= 0.73E-03
       N       E                     dE             d eps       ncg     rms          rms(c)
DAV:   1    -0.877265744805E+03    0.27771E-03   -0.55894E-04  4649   0.868E-02    0.107E-02
RMM:   2    -0.877265767645E+03   -0.22840E-04   -0.28129E-04  2523   0.327E-02
   96 T=     5. E= -.87721136E+03 F= -.87726577E+03 E0= -.87726577E+03  EK= 0.72380E-01 SP= -.19E-01 SK= 0.65E-03
       N       E                     dE             d eps       ncg     rms          rms(c)
DAV:   1    -0.877265295956E+03    0.44885E-03   -0.59720E-04  4702   0.867E-02    0.131E-02
RMM:   2    -0.877265316976E+03   -0.21021E-04   -0.29379E-04  2541   0.335E-02
   97 T=     5. E= -.87721136E+03 F= -.87726532E+03 E0= -.87726532E+03  EK= 0.70523E-01 SP= -.17E-01 SK= 0.55E-03
       N       E                     dE             d eps       ncg     rms          rms(c)
DAV:   1    -0.877264768744E+03    0.52721E-03   -0.64186E-04  4730   0.895E-02    0.851E-03
RMM:   2    -0.877264796267E+03   -0.27523E-04   -0.30471E-04  2561   0.347E-02
   98 T=     4. E= -.87721135E+03 F= -.87726480E+03 E0= -.87726480E+03  EK= 0.68774E-01 SP= -.16E-01 SK= 0.42E-03
       N       E                     dE             d eps       ncg     rms          rms(c)
DAV:   1    -0.877264297996E+03    0.47075E-03   -0.60279E-04  4645   0.845E-02    0.121E-02
RMM:   2    -0.877264317944E+03   -0.19948E-04   -0.26695E-04  2513   0.322E-02
   99 T=     4. E= -.87721134E+03 F= -.87726432E+03 E0= -.87726432E+03  EK= 0.67283E-01 SP= -.15E-01 SK= 0.28E-03
       N       E                     dE             d eps       ncg     rms          rms(c)
DAV:   1    -0.877263988726E+03    0.30927E-03   -0.55367E-04  4564   0.816E-02    0.155E-02
RMM:   2    -0.877264004408E+03   -0.15681E-04   -0.27403E-04  2502   0.328E-02
  100 T=     4. E= -.87721134E+03 F= -.87726400E+03 E0= -.87726400E+03  EK= 0.66172E-01 SP= -.14E-01 SK= 0.16E-03
