<?xml version="1.0" encoding="ISO-8859-1"?>
<modeling>
 <generator>
  <i name="program" type="string">vasp </i>
  <i name="version" type="string">6.2.0  </i>
  <i name="subversion" type="string">18Jan21 (build Feb 25 2021 07:51:20) complex                          parallel </i>
  <i name="platform" type="string">LinuxPGI </i>
  <i name="date" type="string">2022 04 21 </i>
  <i name="time" type="string">11:30:37 </i>
 </generator>
 <incar>
  <i type="string" name="PREC">Accurate</i>
  <i type="string" name="ALGO">Fast</i>
  <i type="int" name="IBRION">     0</i>
  <i type="int" name="NSW">   100</i>
  <i type="int" name="ISYM">     0</i>
  <i name="ENCUT">    700.00000000</i>
  <i name="POTIM">      0.50000000</i>
  <i name="TEBEG">      5.00000000</i>
  <i name="TEEND">      5.00000000</i>
  <i name="SMASS">      0.00000000</i>
  <i type="string" name="LREAL">Auto</i>
  <i type="int" name="ISMEAR">    -5</i>
  <i name="SIGMA">      0.05000000</i>
  <i type="logical" name="LWAVE"> F  </i>
 </incar>
 <primitive_cell>
  <structure name="primitive_cell" >
   <crystal>
    <varray name="basis" >
     <v>       9.23908700       0.05018900       4.19114300 </v>
     <v>       2.67674700       9.09957000       4.28584700 </v>
     <v>      -0.05144400       0.07203300      10.40806300 </v>
    </varray>
    <i name="volume">    873.53217688 </i>
    <varray name="rec_basis" >
     <v>       0.10806720      -0.03214562       0.00075662 </v>
     <v>      -0.00025239       0.11032978      -0.00076483 </v>
     <v>      -0.04341282      -0.03248728       0.09608962 </v>
    </varray>
   </crystal>
   <varray name="positions" >
    <v>       0.15792300       0.40375800       0.40375800 </v>
    <v>       0.15792300       0.40375800       0.90375800 </v>
    <v>       0.15792300       0.90375800       0.40375800 </v>
    <v>       0.15792300       0.90375800       0.90375800 </v>
    <v>       0.65792300       0.40375800       0.40375800 </v>
    <v>       0.65792300       0.40375800       0.90375800 </v>
    <v>       0.65792300       0.90375800       0.40375800 </v>
    <v>       0.65792300       0.90375800       0.90375800 </v>
    <v>       0.40163200       0.40233800       0.15722000 </v>
    <v>       0.40163200       0.40233800       0.65722000 </v>
    <v>       0.40163200       0.90233800       0.15722000 </v>
    <v>       0.40163200       0.90233800       0.65722000 </v>
    <v>       0.90163200       0.40233800       0.15722000 </v>
    <v>       0.90163200       0.40233800       0.65722000 </v>
    <v>       0.90163200       0.90233800       0.15722000 </v>
    <v>       0.90163200       0.90233800       0.65722000 </v>
    <v>       0.40163200       0.15722000       0.40233800 </v>
    <v>       0.40163200       0.15722000       0.90233800 </v>
    <v>       0.40163200       0.65722000       0.40233800 </v>
    <v>       0.40163200       0.65722000       0.90233800 </v>
    <v>       0.90163200       0.15722000       0.40233800 </v>
    <v>       0.90163200       0.15722000       0.90233800 </v>
    <v>       0.90163200       0.65722000       0.40233800 </v>
    <v>       0.90163200       0.65722000       0.90233800 </v>
    <v>       0.34136600       0.09666500       0.09666500 </v>
    <v>       0.34136600       0.09666500       0.59666500 </v>
    <v>       0.34136600       0.59666500       0.09666500 </v>
    <v>       0.34136600       0.59666500       0.59666500 </v>
    <v>       0.84136600       0.09666500       0.09666500 </v>
    <v>       0.84136600       0.09666500       0.59666500 </v>
    <v>       0.84136600       0.59666500       0.09666500 </v>
    <v>       0.84136600       0.59666500       0.59666500 </v>
    <v>       0.09870000       0.09683600       0.34371100 </v>
    <v>       0.09870000       0.09683600       0.84371100 </v>
    <v>       0.09870000       0.59683600       0.34371100 </v>
    <v>       0.09870000       0.59683600       0.84371100 </v>
    <v>       0.59870000       0.09683600       0.34371100 </v>
    <v>       0.59870000       0.09683600       0.84371100 </v>
    <v>       0.59870000       0.59683600       0.34371100 </v>
    <v>       0.59870000       0.59683600       0.84371100 </v>
    <v>       0.09870000       0.34371100       0.09683600 </v>
    <v>       0.09870000       0.34371100       0.59683600 </v>
    <v>       0.09870000       0.84371100       0.09683600 </v>
    <v>       0.09870000       0.84371100       0.59683600 </v>
    <v>       0.59870000       0.34371100       0.09683600 </v>
    <v>       0.59870000       0.34371100       0.59683600 </v>
    <v>       0.59870000       0.84371100       0.09683600 </v>
    <v>       0.59870000       0.84371100       0.59683600 </v>
    <v>       0.49444700       0.49739900       0.33679800 </v>
    <v>       0.49444700       0.49739900       0.83679800 </v>
    <v>       0.49444700       0.99739900       0.33679800 </v>
    <v>       0.49444700       0.99739900       0.83679800 </v>
    <v>       0.99444700       0.49739900       0.33679800 </v>
    <v>       0.99444700       0.49739900       0.83679800 </v>
    <v>       0.99444700       0.99739900       0.33679800 </v>
    <v>       0.99444700       0.99739900       0.83679800 </v>
    <v>       0.49444700       0.33679800       0.49739900 </v>
    <v>       0.49444700       0.33679800       0.99739900 </v>
    <v>       0.49444700       0.83679800       0.49739900 </v>
    <v>       0.49444700       0.83679800       0.99739900 </v>
    <v>       0.99444700       0.33679800       0.49739900 </v>
    <v>       0.99444700       0.33679800       0.99739900 </v>
    <v>       0.99444700       0.83679800       0.49739900 </v>
    <v>       0.99444700       0.83679800       0.99739900 </v>
    <v>       0.17079500       0.00295000       0.00295000 </v>
    <v>       0.17079500       0.00295000       0.50295000 </v>
    <v>       0.17079500       0.50295000       0.00295000 </v>
    <v>       0.17079500       0.50295000       0.50295000 </v>
    <v>       0.67079500       0.00295000       0.00295000 </v>
    <v>       0.67079500       0.00295000       0.50295000 </v>
    <v>       0.67079500       0.50295000       0.00295000 </v>
    <v>       0.67079500       0.50295000       0.50295000 </v>
    <v>       0.00347500       0.00275500       0.16436200 </v>
    <v>       0.00347500       0.00275500       0.66436200 </v>
    <v>       0.00347500       0.50275500       0.16436200 </v>
    <v>       0.00347500       0.50275500       0.66436200 </v>
    <v>       0.50347500       0.00275500       0.16436200 </v>
    <v>       0.50347500       0.00275500       0.66436200 </v>
    <v>       0.50347500       0.50275500       0.16436200 </v>
    <v>       0.50347500       0.50275500       0.66436200 </v>
    <v>       0.00347500       0.16436200       0.00275500 </v>
    <v>       0.00347500       0.16436200       0.50275500 </v>
    <v>       0.00347500       0.66436200       0.00275500 </v>
    <v>       0.00347500       0.66436200       0.50275500 </v>
    <v>       0.50347500       0.16436200       0.00275500 </v>
    <v>       0.50347500       0.16436200       0.50275500 </v>
    <v>       0.50347500       0.66436200       0.00275500 </v>
    <v>       0.50347500       0.66436200       0.50275500 </v>
    <v>       0.24799500       0.24900900       0.24900900 </v>
    <v>       0.24799500       0.24900900       0.74900900 </v>
    <v>       0.24799500       0.74900900       0.24900900 </v>
    <v>       0.24799500       0.74900900       0.74900900 </v>
    <v>       0.74799500       0.24900900       0.24900900 </v>
    <v>       0.74799500       0.24900900       0.74900900 </v>
    <v>       0.74799500       0.74900900       0.24900900 </v>
    <v>       0.74799500       0.74900900       0.74900900 </v>
    <v>       0.33833600       0.49792800       0.49792800 </v>
    <v>       0.33833600       0.49792800       0.99792800 </v>
    <v>       0.33833600       0.99792800       0.49792800 </v>
    <v>       0.33833600       0.99792800       0.99792800 </v>
    <v>       0.83833600       0.49792800       0.49792800 </v>
    <v>       0.83833600       0.49792800       0.99792800 </v>
    <v>       0.83833600       0.99792800       0.49792800 </v>
    <v>       0.83833600       0.99792800       0.99792800 </v>
    <v>       0.30608800       0.30943700       0.30943700 </v>
    <v>       0.30608800       0.30943700       0.80943700 </v>
    <v>       0.30608800       0.80943700       0.30943700 </v>
    <v>       0.30608800       0.80943700       0.80943700 </v>
    <v>       0.80608800       0.30943700       0.30943700 </v>
    <v>       0.80608800       0.30943700       0.80943700 </v>
    <v>       0.80608800       0.80943700       0.30943700 </v>
    <v>       0.80608800       0.80943700       0.80943700 </v>
    <v>       0.19098900       0.18883500       0.18883500 </v>
    <v>       0.19098900       0.18883500       0.68883500 </v>
    <v>       0.19098900       0.68883500       0.18883500 </v>
    <v>       0.19098900       0.68883500       0.68883500 </v>
    <v>       0.69098900       0.18883500       0.18883500 </v>
    <v>       0.69098900       0.18883500       0.68883500 </v>
    <v>       0.69098900       0.68883500       0.18883500 </v>
    <v>       0.69098900       0.68883500       0.68883500 </v>
   </varray>
  </structure>
  <varray name="primitive_index" >
   <v type="int" >        1 </v>
   <v type="int" >        2 </v>
   <v type="int" >        3 </v>
   <v type="int" >        4 </v>
   <v type="int" >        5 </v>
   <v type="int" >        6 </v>
   <v type="int" >        7 </v>
   <v type="int" >        8 </v>
   <v type="int" >        9 </v>
   <v type="int" >       10 </v>
   <v type="int" >       11 </v>
   <v type="int" >       12 </v>
   <v type="int" >       13 </v>
   <v type="int" >       14 </v>
   <v type="int" >       15 </v>
   <v type="int" >       16 </v>
   <v type="int" >       17 </v>
   <v type="int" >       18 </v>
   <v type="int" >       19 </v>
   <v type="int" >       20 </v>
   <v type="int" >       21 </v>
   <v type="int" >       22 </v>
   <v type="int" >       23 </v>
   <v type="int" >       24 </v>
   <v type="int" >       25 </v>
   <v type="int" >       26 </v>
   <v type="int" >       27 </v>
   <v type="int" >       28 </v>
   <v type="int" >       29 </v>
   <v type="int" >       30 </v>
   <v type="int" >       31 </v>
   <v type="int" >       32 </v>
   <v type="int" >       33 </v>
   <v type="int" >       34 </v>
   <v type="int" >       35 </v>
   <v type="int" >       36 </v>
   <v type="int" >       37 </v>
   <v type="int" >       38 </v>
   <v type="int" >       39 </v>
   <v type="int" >       40 </v>
   <v type="int" >       41 </v>
   <v type="int" >       42 </v>
   <v type="int" >       43 </v>
   <v type="int" >       44 </v>
   <v type="int" >       45 </v>
   <v type="int" >       46 </v>
   <v type="int" >       47 </v>
   <v type="int" >       48 </v>
   <v type="int" >       49 </v>
   <v type="int" >       50 </v>
   <v type="int" >       51 </v>
   <v type="int" >       52 </v>
   <v type="int" >       53 </v>
   <v type="int" >       54 </v>
   <v type="int" >       55 </v>
   <v type="int" >       56 </v>
   <v type="int" >       57 </v>
   <v type="int" >       58 </v>
   <v type="int" >       59 </v>
   <v type="int" >       60 </v>
   <v type="int" >       61 </v>
   <v type="int" >       62 </v>
   <v type="int" >       63 </v>
   <v type="int" >       64 </v>
   <v type="int" >       65 </v>
   <v type="int" >       66 </v>
   <v type="int" >       67 </v>
   <v type="int" >       68 </v>
   <v type="int" >       69 </v>
   <v type="int" >       70 </v>
   <v type="int" >       71 </v>
   <v type="int" >       72 </v>
   <v type="int" >       73 </v>
   <v type="int" >       74 </v>
   <v type="int" >       75 </v>
   <v type="int" >       76 </v>
   <v type="int" >       77 </v>
   <v type="int" >       78 </v>
   <v type="int" >       79 </v>
   <v type="int" >       80 </v>
   <v type="int" >       81 </v>
   <v type="int" >       82 </v>
   <v type="int" >       83 </v>
   <v type="int" >       84 </v>
   <v type="int" >       85 </v>
   <v type="int" >       86 </v>
   <v type="int" >       87 </v>
   <v type="int" >       88 </v>
   <v type="int" >       89 </v>
   <v type="int" >       90 </v>
   <v type="int" >       91 </v>
   <v type="int" >       92 </v>
   <v type="int" >       93 </v>
   <v type="int" >       94 </v>
   <v type="int" >       95 </v>
   <v type="int" >       96 </v>
   <v type="int" >       97 </v>
   <v type="int" >       98 </v>
   <v type="int" >       99 </v>
   <v type="int" >      100 </v>
   <v type="int" >      101 </v>
   <v type="int" >      102 </v>
   <v type="int" >      103 </v>
   <v type="int" >      104 </v>
   <v type="int" >      105 </v>
   <v type="int" >      106 </v>
   <v type="int" >      107 </v>
   <v type="int" >      108 </v>
   <v type="int" >      109 </v>
   <v type="int" >      110 </v>
   <v type="int" >      111 </v>
   <v type="int" >      112 </v>
   <v type="int" >      113 </v>
   <v type="int" >      114 </v>
   <v type="int" >      115 </v>
   <v type="int" >      116 </v>
   <v type="int" >      117 </v>
   <v type="int" >      118 </v>
   <v type="int" >      119 </v>
   <v type="int" >      120 </v>
  </varray>
 </primitive_cell>
 <kpoints>
  <generation param="Gamma">
   <v type="int" name="divisions">       2        2        2 </v>
   <v name="usershift">      0.00000000       0.00000000       0.00000000 </v>
   <v name="genvec1">      0.50000000       0.00000000       0.00000000 </v>
   <v name="genvec2">     -0.00000000       0.50000000      -0.00000000 </v>
   <v name="genvec3">      0.00000000       0.00000000       0.50000000 </v>
   <v name="shift">      0.00000000       0.00000000       0.00000000 </v>
  </generation>
  <varray name="kpointlist" >
   <v>       0.00000000       0.00000000       0.00000000 </v>
   <v>       0.50000000       0.00000000       0.00000000 </v>
   <v>       0.00000000       0.50000000       0.00000000 </v>
   <v>       0.00000000       0.00000000       0.50000000 </v>
   <v>       0.50000000       0.50000000       0.00000000 </v>
   <v>       0.50000000       0.00000000       0.50000000 </v>
   <v>       0.00000000       0.50000000       0.50000000 </v>
   <v>       0.50000000       0.50000000       0.50000000 </v>
  </varray>
  <varray name="weights" >
   <v>       0.12500000 </v>
   <v>       0.12500000 </v>
   <v>       0.12500000 </v>
   <v>       0.12500000 </v>
   <v>       0.12500000 </v>
   <v>       0.12500000 </v>
   <v>       0.12500000 </v>
   <v>       0.12500000 </v>
  </varray>
  <varray name="tetrahedronlist"  type="int" >
   <v type="int" >        2        1        3        5        8 </v>
   <v type="int" >        2        1        2        5        8 </v>
   <v type="int" >        2        1        2        6        8 </v>
   <v type="int" >        2        1        3        7        8 </v>
   <v type="int" >        2        1        4        7        8 </v>
   <v type="int" >        2        1        4        6        8 </v>
   <v type="int" >        2        2        3        5        7 </v>
   <v type="int" >        2        1        2        3        7 </v>
   <v type="int" >        2        1        2        4        7 </v>
   <v type="int" >        2        2        5        7        8 </v>
   <v type="int" >        2        2        6        7        8 </v>
   <v type="int" >        2        2        4        6        7 </v>
   <v type="int" >        2        1        2        3        6 </v>
   <v type="int" >        2        2        3        5        6 </v>
   <v type="int" >        2        3        5        6        8 </v>
   <v type="int" >        2        1        3        4        6 </v>
   <v type="int" >        2        3        4        6        7 </v>
   <v type="int" >        2        3        6        7        8 </v>
   <v type="int" >        2        1        2        4        5 </v>
   <v type="int" >        2        1        3        4        5 </v>
   <v type="int" >        2        3        4        5        7 </v>
   <v type="int" >        2        2        4        5        6 </v>
   <v type="int" >        2        4        5        6        8 </v>
   <v type="int" >        2        4        5        7        8 </v>
  </varray>
  <i name="volumeweight">      0.02083333 </i>
 </kpoints>
 <parameters>
  <separator name="general" >
   <i type="string" name="SYSTEM">unknown system</i>
   <i type="logical" name="LCOMPAT"> F  </i>
  </separator>
  <separator name="electronic" >
   <i type="string" name="PREC">accura</i>
   <i name="ENMAX">    700.00000000</i>
   <i name="ENAUG">    644.87300000</i>
   <i name="EDIFF">      0.00010000</i>
   <i type="int" name="IALGO">    68</i>
   <i type="int" name="IWAVPR">    12</i>
   <i type="int" name="NBANDS">   253</i>
   <i type="int" name="NBANDSLOW">    -1</i>
   <i type="int" name="NBANDSHIGH">    -1</i>
   <i name="NELECT">    384.00000000</i>
   <i type="int" name="TURBO">     0</i>
   <i type="int" name="IRESTART">     0</i>
   <i type="int" name="NREBOOT">     0</i>
   <i type="int" name="NMIN">     0</i>
   <i name="EREF">      0.00000000</i>
   <separator name="electronic smearing" >
    <i type="int" name="ISMEAR">    -5</i>
    <i name="SIGMA">      0.05000000</i>
    <i name="KSPACING">      0.50000000</i>
    <i type="logical" name="KGAMMA"> T  </i>
    <i type="logical" name="KBLOWUP"> T  </i>
   </separator>
   <separator name="electronic projectors" >
    <i type="logical" name="LREAL"> T  </i>
    <v name="ROPT">     -0.00025000     -0.00025000</v>
    <i type="int" name="LMAXPAW">  -100</i>
    <i type="int" name="LMAXMIX">     2</i>
    <i type="logical" name="NLSPLINE"> F  </i>
   </separator>
   <separator name="electronic startup" >
    <i type="int" name="ISTART">     0</i>
    <i type="int" name="ICHARG">     2</i>
    <i type="int" name="INIWAV">     1</i>
   </separator>
   <separator name="electronic spin" >
    <i type="int" name="ISPIN">     1</i>
    <i type="logical" name="LNONCOLLINEAR"> F  </i>
    <v name="MAGMOM">      1.00000000      1.00000000      1.00000000      1.00000000      1.00000000      1.00000000      1.00000000      1.00000000      1.00000000      1.00000000      1.00000000      1.00000000      1.00000000      1.00000000      1.00000000      1.00000000      1.00000000      1.00000000      1.00000000      1.00000000
      1.00000000      1.00000000      1.00000000      1.00000000      1.00000000      1.00000000      1.00000000      1.00000000      1.00000000      1.00000000      1.00000000      1.00000000      1.00000000      1.00000000      1.00000000      1.00000000      1.00000000      1.00000000      1.00000000      1.00000000
      1.00000000      1.00000000      1.00000000      1.00000000      1.00000000      1.00000000      1.00000000      1.00000000      1.00000000      1.00000000      1.00000000      1.00000000      1.00000000      1.00000000      1.00000000      1.00000000      1.00000000      1.00000000      1.00000000      1.00000000
      1.00000000      1.00000000      1.00000000      1.00000000      1.00000000      1.00000000      1.00000000      1.00000000      1.00000000      1.00000000      1.00000000      1.00000000      1.00000000      1.00000000      1.00000000      1.00000000      1.00000000      1.00000000      1.00000000      1.00000000
      1.00000000      1.00000000      1.00000000      1.00000000      1.00000000      1.00000000      1.00000000      1.00000000      1.00000000      1.00000000      1.00000000      1.00000000      1.00000000      1.00000000      1.00000000      1.00000000      1.00000000      1.00000000      1.00000000      1.00000000
      1.00000000      1.00000000      1.00000000      1.00000000      1.00000000      1.00000000      1.00000000      1.00000000      1.00000000      1.00000000      1.00000000      1.00000000      1.00000000      1.00000000      1.00000000      1.00000000      1.00000000      1.00000000      1.00000000      1.00000000
</v>
    <i name="NUPDOWN">     -1.00000000</i>
    <i type="logical" name="LSORBIT"> F  </i>
    <v name="SAXIS">      0.00000000      0.00000000      1.00000000</v>
    <i type="logical" name="LSPIRAL"> F  </i>
    <v name="QSPIRAL">      0.00000000      0.00000000      0.00000000</v>
    <i type="logical" name="LZEROZ"> F  </i>
   </separator>
   <separator name="electronic exchange-correlation" >
    <i type="logical" name="LASPH"> F  </i>
    <i type="logical" name="LMETAGGA"> F  </i>
   </separator>
   <separator name="electronic convergence" >
    <i type="int" name="NELM">    60</i>
    <i type="int" name="NELMDL">     0</i>
    <i type="int" name="NELMIN">     2</i>
    <i name="ENINI">    700.00000000</i>
    <separator name="electronic convergence detail" >
     <i type="logical" name="LDIAG"> T  </i>
     <i type="logical" name="LSUBROT"> F  </i>
     <i name="WEIMIN">      0.00100000</i>
     <i name="EBREAK">      0.00000010</i>
     <i name="DEPER">      0.30000000</i>
     <i type="int" name="NRMM">     4</i>
     <i name="TIME">      0.40000000</i>
    </separator>
   </separator>
   <separator name="electronic mixer" >
    <i name="AMIX">      0.40000000</i>
    <i name="BMIX">      1.00000000</i>
    <i name="AMIN">      0.10000000</i>
    <i name="AMIX_MAG">      1.60000000</i>
    <i name="BMIX_MAG">      1.00000000</i>
    <separator name="electronic mixer details" >
     <i type="int" name="IMIX">     4</i>
     <i type="logical" name="MIXFIRST"> F  </i>
     <i type="int" name="MAXMIX">   -45</i>
     <i name="WC">    100.00000000</i>
     <i type="int" name="INIMIX">     1</i>
     <i type="int" name="MIXPRE">     1</i>
     <i type="int" name="MREMOVE">     5</i>
    </separator>
   </separator>
   <separator name="electronic dipolcorrection" >
    <i type="logical" name="LDIPOL"> F  </i>
    <i type="logical" name="LMONO"> F  </i>
    <i type="int" name="IDIPOL">     0</i>
    <i name="EPSILON">      1.00000000</i>
    <v name="DIPOL">   -100.00000000   -100.00000000   -100.00000000</v>
    <i name="EFIELD">      0.00000000</i>
   </separator>
  </separator>
  <separator name="grids" >
   <i type="int" name="NGX">    90</i>
   <i type="int" name="NGY">    90</i>
   <i type="int" name="NGZ">    90</i>
   <i type="int" name="NGXF">   180</i>
   <i type="int" name="NGYF">   180</i>
   <i type="int" name="NGZF">   180</i>
   <i type="logical" name="ADDGRID"> F  </i>
  </separator>
  <separator name="ionic" >
   <i type="int" name="NSW">   100</i>
   <i type="int" name="IBRION">     0</i>
   <i type="int" name="MDALGO">     0</i>
   <i type="int" name="ISIF">     0</i>
   <i name="PSTRESS">      0.00000000</i>
   <i name="EDIFFG">      0.00100000</i>
   <i type="int" name="NFREE">     0</i>
   <i name="POTIM">      0.50000000</i>
   <i name="SMASS">      0.00029219</i>
   <i name="SCALEE">      1.00000000</i>
  </separator>
  <separator name="ionic md" >
   <i name="TEBEG">      5.00000000</i>
   <i name="TEEND">      5.00000000</i>
   <i type="int" name="NBLOCK">     1</i>
   <i type="int" name="KBLOCK">   100</i>
   <i type="int" name="NPACO">   256</i>
   <i name="APACO">     16.00000000</i>
  </separator>
  <separator name="symmetry" >
   <i type="int" name="ISYM">     0</i>
   <i name="SYMPREC">      0.00001000</i>
  </separator>
  <separator name="dos" >
   <i type="int" name="LORBIT">     0</i>
   <v name="RWIGS">     -1.00000000     -1.00000000</v>
   <i type="int" name="NEDOS">   301</i>
   <i name="EMIN">     10.00000000</i>
   <i name="EMAX">    -10.00000000</i>
   <i name="EFERMI">      0.00000000</i>
  </separator>
  <separator name="writing" >
   <i type="int" name="NWRITE">     2</i>
   <i type="logical" name="LWAVE"> F  </i>
   <i type="logical" name="LDOWNSAMPLE"> F  </i>
   <i type="logical" name="LCHARG"> T  </i>
   <i type="logical" name="LPARD"> F  </i>
   <i type="logical" name="LVTOT"> F  </i>
   <i type="logical" name="LVHAR"> F  </i>
   <i type="logical" name="LELF"> F  </i>
   <i type="logical" name="LOPTICS"> F  </i>
   <v name="STM">      0.00000000      0.00000000      0.00000000      0.00000000      0.00000000      0.00000000      0.00000000</v>
  </separator>
  <separator name="performance" >
   <i type="int" name="NPAR">     1</i>
   <i type="int" name="NSIM">     4</i>
   <i type="int" name="NBLK">    -1</i>
   <i type="logical" name="LPLANE"> T  </i>
   <i type="logical" name="LSCALAPACK"> T  </i>
   <i type="logical" name="LSCAAWARE"> F  </i>
   <i type="logical" name="LSCALU"> F  </i>
   <i type="logical" name="LASYNC"> F  </i>
   <i type="logical" name="LORBITALREAL"> F  </i>
  </separator>
  <separator name="miscellaneous" >
   <i type="int" name="IDIOT">     3</i>
   <i type="int" name="PHON_NSTRUCT">    -1</i>
   <i type="logical" name="LMUSIC"> F  </i>
   <v name="POMASS">     10.81100000     12.01100000</v>
   <v name="DARWINR">      0.00000000      0.00000000</v>
   <v name="DARWINV">      1.00000000      1.00000000</v>
   <i type="logical" name="LCORR"> T  </i>
  </separator>
  <i type="logical" name="GGA_COMPAT"> T  </i>
  <i type="logical" name="LBERRY"> F  </i>
  <i type="int" name="ICORELEVEL">     0</i>
  <i type="logical" name="LDAU"> F  </i>
  <i type="int" name="I_CONSTRAINED_M">     0</i>
  <separator name="electronic exchange-correlation" >
   <i type="string" name="GGA">--</i>
   <i type="int" name="VOSKOWN">     0</i>
   <i type="logical" name="LHFCALC"> F  </i>
   <i type="string" name="PRECFOCK"></i>
   <i type="logical" name="LSYMGRAD"> F  </i>
   <i type="logical" name="LHFONE"> F  </i>
   <i type="logical" name="LRHFCALC"> F  </i>
   <i type="logical" name="LTHOMAS"> F  </i>
   <i type="logical" name="LMODELHF"> F  </i>
   <i type="logical" name="LFOCKACE"> F  </i>
   <i name="ENCUT4O">     -1.00000000</i>
   <i type="int" name="EXXOEP">     0</i>
   <i type="int" name="FOURORBIT">     0</i>
   <i name="AEXX">      0.00000000</i>
   <i name="HFALPHA">      0.00000000</i>
   <i name="MCALPHA">      0.00000000</i>
   <i name="ALDAX">      1.00000000</i>
   <i name="AGGAX">      1.00000000</i>
   <i name="ALDAC">      1.00000000</i>
   <i name="AGGAC">      1.00000000</i>
   <i type="int" name="NKREDX">     1</i>
   <i type="int" name="NKREDY">     1</i>
   <i type="int" name="NKREDZ">     1</i>
   <i type="logical" name="SHIFTRED"> F  </i>
   <i type="logical" name="ODDONLY"> F  </i>
   <i type="logical" name="EVENONLY"> F  </i>
   <i type="int" name="LMAXFOCK">     0</i>
   <i type="int" name="NMAXFOCKAE">     0</i>
   <i type="logical" name="LFOCKAEDFT"> F  </i>
   <i name="HFSCREEN">      0.00000000</i>
   <i name="HFSCREENC">      0.00000000</i>
   <i type="int" name="NBANDSGWLOW">     0</i>
  </separator>
  <separator name="vdW DFT" >
   <i type="logical" name="LUSE_VDW"> F  </i>
   <i name="Zab_VDW">     -0.84910000</i>
   <i name="PARAM1">      0.12340000</i>
   <i name="PARAM2">      1.00000000</i>
   <i name="PARAM3">      0.00000000</i>
  </separator>
  <separator name="model GW" >
   <i type="int" name="MODEL_GW">     0</i>
   <i name="MODEL_EPS0">      4.36766088</i>
   <i name="MODEL_ALPHA">      1.00000000</i>
  </separator>
  <separator name="linear response parameters" >
   <i type="logical" name="LEPSILON"> F  </i>
   <i type="logical" name="LRPA"> F  </i>
   <i type="logical" name="LNABLA"> F  </i>
   <i type="logical" name="LVEL"> F  </i>
   <i type="int" name="KINTER">     0</i>
   <i name="CSHIFT">      0.10000000</i>
   <i name="OMEGAMAX">     -1.00000000</i>
   <i name="DEG_THRESHOLD">      0.00200000</i>
   <i name="RTIME">     -0.10000000</i>
   <i name="WPLASMAI">      0.00000000</i>
   <v name="DFIELD">      0.00000000      0.00000000      0.00000000</v>
   <v name="WPLASMA">      0.00000000      0.00000000      0.00000000      0.00000000      0.00000000      0.00000000      0.00000000      0.00000000      0.00000000</v>
  </separator>
  <separator name="orbital magnetization" >
   <i type="logical" name="NUCIND"> F  </i>
   <v name="MAGPOS">      0.00000000      0.00000000      0.00000000</v>
   <i type="logical" name="LNICSALL"> T  </i>
   <i type="logical" name="ORBITALMAG"> F  </i>
   <i type="logical" name="LMAGBLOCH"> F  </i>
   <i type="logical" name="LCHIMAG"> F  </i>
   <i type="logical" name="LGAUGE"> T  </i>
   <i type="int" name="MAGATOM">     0</i>
   <v name="MAGDIPOL">      0.00000000      0.00000000      0.00000000</v>
   <v name="AVECCONST">      0.00000000      0.00000000      0.00000000</v>
  </separator>
  <separator name="response functions" >
   <i type="logical" name="LFINITE_TEMPERATURE"> F  </i>
   <i type="logical" name="LADDER"> F  </i>
   <i type="logical" name="LRPAFORCE"> F  </i>
   <i type="logical" name="LFXC"> F  </i>
   <i type="logical" name="LHARTREE"> T  </i>
   <i type="int" name="IBSE">     0</i>
   <v type="int" name="KPOINT">    -1     0     0     0</v>
   <i type="logical" name="LTCTC"> F  </i>
   <i type="logical" name="LTCTE"> F  </i>
   <i type="logical" name="LTETE"> F  </i>
   <i type="logical" name="LTRIPLET"> F  </i>
   <i type="logical" name="LFXCEPS"> F  </i>
   <i type="logical" name="LFXHEG"> F  </i>
   <i type="int" name="NATURALO">     2</i>
   <i type="logical" name="LHOLEGF"> F  </i>
   <i type="logical" name="L2ORDER"> F  </i>
   <i type="logical" name="LDMP1"> F  </i>
   <i type="logical" name="LMP2LT"> F  </i>
   <i type="logical" name="LSMP2LT"> F  </i>
   <i type="logical" name="LGWLF"> F  </i>
   <i name="ENCUTGW">     -2.00000000</i>
   <i name="ENCUTGWSOFT">     -2.00000000</i>
   <i name="ENCUTLF">     -1.00000000</i>
   <i type="logical" name="LESF_SPLINES"> F  </i>
   <i type="int" name="LMAXMP2">    -1</i>
   <i name="SCISSOR">      0.00000000</i>
   <i type="int" name="NOMEGA">     0</i>
   <i type="int" name="NOMEGAR">     0</i>
   <i type="int" name="NBANDSGW">    -1</i>
   <i type="int" name="NBANDSO">    -1</i>
   <i type="int" name="NBANDSV">    -1</i>
   <i type="int" name="NELM">     1</i>
   <i type="int" name="NELMHF">     1</i>
   <i type="int" name="DIM">     3</i>
   <i type="int" name="IESPILON">     4</i>
   <i type="int" name="ANTIRES">     0</i>
   <i name="OMEGAMAX">    -30.00000000</i>
   <i name="OMEGAMIN">    -30.00000000</i>
   <i name="OMEGATL">   -200.00000000</i>
   <i type="int" name="OMEGAGRID">     0</i>
   <i name="CSHIFT">     -0.10000000</i>
   <i type="logical" name="LSELFENERGY"> F  </i>
   <i type="logical" name="LSPECTRAL"> F  </i>
   <i type="logical" name="LSPECTRALGW"> F  </i>
   <i type="logical" name="LSINGLES"> F  </i>
   <i type="logical" name="LFERMIGW"> F  </i>
   <i type="logical" name="ODDONLYGW"> F  </i>
   <i type="logical" name="EVENONLYGW"> F  </i>
   <i type="int" name="NKREDLFX">     1</i>
   <i type="int" name="NKREDLFY">     1</i>
   <i type="int" name="NKREDLFZ">     1</i>
   <i type="int" name="MAXMEM">  2800</i>
   <i type="int" name="TELESCOPE">     0</i>
   <i type="int" name="NTAUPAR">    -1</i>
   <i type="int" name="NOMEGAPAR">    -1</i>
   <i name="DAMP_NEWTON">      0.80000001</i>
   <i name="LAMBDA">      1.00000000</i>
  </separator>
  <separator name="External order field" >
   <i name="OFIELD_KAPPA">      0.00000000</i>
   <v name="OFIELD_K">      0.00000000      0.00000000      0.00000000</v>
   <i name="OFIELD_Q6_NEAR">      0.00000000</i>
   <i name="OFIELD_Q6_FAR">      0.00000000</i>
   <i name="OFIELD_A">      0.00000000</i>
  </separator>
 </parameters>
 <atominfo>
  <atoms>     120 </atoms>
  <types>       2 </types>
  <array name="atoms" >
   <dimension dim="1">ion</dimension>
   <field type="string">element</field>
   <field type="int">atomtype</field>
   <set>
    <rc><c>B </c><c>   1</c></rc>
    <rc><c>B </c><c>   1</c></rc>
    <rc><c>B </c><c>   1</c></rc>
    <rc><c>B </c><c>   1</c></rc>
    <rc><c>B </c><c>   1</c></rc>
    <rc><c>B </c><c>   1</c></rc>
    <rc><c>B </c><c>   1</c></rc>
    <rc><c>B </c><c>   1</c></rc>
    <rc><c>B </c><c>   1</c></rc>
    <rc><c>B </c><c>   1</c></rc>
    <rc><c>B </c><c>   1</c></rc>
    <rc><c>B </c><c>   1</c></rc>
    <rc><c>B </c><c>   1</c></rc>
    <rc><c>B </c><c>   1</c></rc>
    <rc><c>B </c><c>   1</c></rc>
    <rc><c>B </c><c>   1</c></rc>
    <rc><c>B </c><c>   1</c></rc>
    <rc><c>B </c><c>   1</c></rc>
    <rc><c>B </c><c>   1</c></rc>
    <rc><c>B </c><c>   1</c></rc>
    <rc><c>B </c><c>   1</c></rc>
    <rc><c>B </c><c>   1</c></rc>
    <rc><c>B </c><c>   1</c></rc>
    <rc><c>B </c><c>   1</c></rc>
    <rc><c>B </c><c>   1</c></rc>
    <rc><c>B </c><c>   1</c></rc>
    <rc><c>B </c><c>   1</c></rc>
    <rc><c>B </c><c>   1</c></rc>
    <rc><c>B </c><c>   1</c></rc>
    <rc><c>B </c><c>   1</c></rc>
    <rc><c>B </c><c>   1</c></rc>
    <rc><c>B </c><c>   1</c></rc>
    <rc><c>B </c><c>   1</c></rc>
    <rc><c>B </c><c>   1</c></rc>
    <rc><c>B </c><c>   1</c></rc>
    <rc><c>B </c><c>   1</c></rc>
    <rc><c>B </c><c>   1</c></rc>
    <rc><c>B </c><c>   1</c></rc>
    <rc><c>B </c><c>   1</c></rc>
    <rc><c>B </c><c>   1</c></rc>
    <rc><c>B </c><c>   1</c></rc>
    <rc><c>B </c><c>   1</c></rc>
    <rc><c>B </c><c>   1</c></rc>
    <rc><c>B </c><c>   1</c></rc>
    <rc><c>B </c><c>   1</c></rc>
    <rc><c>B </c><c>   1</c></rc>
    <rc><c>B </c><c>   1</c></rc>
    <rc><c>B </c><c>   1</c></rc>
    <rc><c>B </c><c>   1</c></rc>
    <rc><c>B </c><c>   1</c></rc>
    <rc><c>B </c><c>   1</c></rc>
    <rc><c>B </c><c>   1</c></rc>
    <rc><c>B </c><c>   1</c></rc>
    <rc><c>B </c><c>   1</c></rc>
    <rc><c>B </c><c>   1</c></rc>
    <rc><c>B </c><c>   1</c></rc>
    <rc><c>B </c><c>   1</c></rc>
    <rc><c>B </c><c>   1</c></rc>
    <rc><c>B </c><c>   1</c></rc>
    <rc><c>B </c><c>   1</c></rc>
    <rc><c>B </c><c>   1</c></rc>
    <rc><c>B </c><c>   1</c></rc>
    <rc><c>B </c><c>   1</c></rc>
    <rc><c>B </c><c>   1</c></rc>
    <rc><c>B </c><c>   1</c></rc>
    <rc><c>B </c><c>   1</c></rc>
    <rc><c>B </c><c>   1</c></rc>
    <rc><c>B </c><c>   1</c></rc>
    <rc><c>B </c><c>   1</c></rc>
    <rc><c>B </c><c>   1</c></rc>
    <rc><c>B </c><c>   1</c></rc>
    <rc><c>B </c><c>   1</c></rc>
    <rc><c>B </c><c>   1</c></rc>
    <rc><c>B </c><c>   1</c></rc>
    <rc><c>B </c><c>   1</c></rc>
    <rc><c>B </c><c>   1</c></rc>
    <rc><c>B </c><c>   1</c></rc>
    <rc><c>B </c><c>   1</c></rc>
    <rc><c>B </c><c>   1</c></rc>
    <rc><c>B </c><c>   1</c></rc>
    <rc><c>B </c><c>   1</c></rc>
    <rc><c>B </c><c>   1</c></rc>
    <rc><c>B </c><c>   1</c></rc>
    <rc><c>B </c><c>   1</c></rc>
    <rc><c>B </c><c>   1</c></rc>
    <rc><c>B </c><c>   1</c></rc>
    <rc><c>B </c><c>   1</c></rc>
    <rc><c>B </c><c>   1</c></rc>
    <rc><c>B </c><c>   1</c></rc>
    <rc><c>B </c><c>   1</c></rc>
    <rc><c>B </c><c>   1</c></rc>
    <rc><c>B </c><c>   1</c></rc>
    <rc><c>B </c><c>   1</c></rc>
    <rc><c>B </c><c>   1</c></rc>
    <rc><c>B </c><c>   1</c></rc>
    <rc><c>B </c><c>   1</c></rc>
    <rc><c>C </c><c>   2</c></rc>
    <rc><c>C </c><c>   2</c></rc>
    <rc><c>C </c><c>   2</c></rc>
    <rc><c>C </c><c>   2</c></rc>
    <rc><c>C </c><c>   2</c></rc>
    <rc><c>C </c><c>   2</c></rc>
    <rc><c>C </c><c>   2</c></rc>
    <rc><c>C </c><c>   2</c></rc>
    <rc><c>C </c><c>   2</c></rc>
    <rc><c>C </c><c>   2</c></rc>
    <rc><c>C </c><c>   2</c></rc>
    <rc><c>C </c><c>   2</c></rc>
    <rc><c>C </c><c>   2</c></rc>
    <rc><c>C </c><c>   2</c></rc>
    <rc><c>C </c><c>   2</c></rc>
    <rc><c>C </c><c>   2</c></rc>
    <rc><c>C </c><c>   2</c></rc>
    <rc><c>C </c><c>   2</c></rc>
    <rc><c>C </c><c>   2</c></rc>
    <rc><c>C </c><c>   2</c></rc>
    <rc><c>C </c><c>   2</c></rc>
    <rc><c>C </c><c>   2</c></rc>
    <rc><c>C </c><c>   2</c></rc>
    <rc><c>C </c><c>   2</c></rc>
   </set>
  </array>
  <array name="atomtypes" >
   <dimension dim="1">type</dimension>
   <field type="int">atomspertype</field>
   <field type="string">element</field>
   <field>mass</field>
   <field>valence</field>
   <field type="string">pseudopotential</field>
   <set>
    <rc><c>  96</c><c>B </c><c>     10.81100000</c><c>      3.00000000</c><c>  PAW_PBE B 06Sep2000                   </c></rc>
    <rc><c>  24</c><c>C </c><c>     12.01100000</c><c>      4.00000000</c><c>  PAW_PBE C 08Apr2002                   </c></rc>
   </set>
  </array>
 </atominfo>
 <structure name="initialpos" >
  <crystal>
   <varray name="basis" >
    <v>       9.23908700       0.05018900       4.19114300 </v>
    <v>       2.67674700       9.09957000       4.28584700 </v>
    <v>      -0.05144400       0.07203300      10.40806300 </v>
   </varray>
   <i name="volume">    873.53217688 </i>
   <varray name="rec_basis" >
    <v>       0.10806720      -0.03214562       0.00075662 </v>
    <v>      -0.00025239       0.11032978      -0.00076483 </v>
    <v>      -0.04341282      -0.03248728       0.09608962 </v>
   </varray>
  </crystal>
  <varray name="positions" >
   <v>       0.15792300       0.40375800       0.40375800 </v>
   <v>       0.15792300       0.40375800       0.90375800 </v>
   <v>       0.15792300       0.90375800       0.40375800 </v>
   <v>       0.15792300       0.90375800       0.90375800 </v>
   <v>       0.65792300       0.40375800       0.40375800 </v>
   <v>       0.65792300       0.40375800       0.90375800 </v>
   <v>       0.65792300       0.90375800       0.40375800 </v>
   <v>       0.65792300       0.90375800       0.90375800 </v>
   <v>       0.40163200       0.40233800       0.15722000 </v>
   <v>       0.40163200       0.40233800       0.65722000 </v>
   <v>       0.40163200       0.90233800       0.15722000 </v>
   <v>       0.40163200       0.90233800       0.65722000 </v>
   <v>       0.90163200       0.40233800       0.15722000 </v>
   <v>       0.90163200       0.40233800       0.65722000 </v>
   <v>       0.90163200       0.90233800       0.15722000 </v>
   <v>       0.90163200       0.90233800       0.65722000 </v>
   <v>       0.40163200       0.15722000       0.40233800 </v>
   <v>       0.40163200       0.15722000       0.90233800 </v>
   <v>       0.40163200       0.65722000       0.40233800 </v>
   <v>       0.40163200       0.65722000       0.90233800 </v>
   <v>       0.90163200       0.15722000       0.40233800 </v>
   <v>       0.90163200       0.15722000       0.90233800 </v>
   <v>       0.90163200       0.65722000       0.40233800 </v>
   <v>       0.90163200       0.65722000       0.90233800 </v>
   <v>       0.34136600       0.09666500       0.09666500 </v>
   <v>       0.34136600       0.09666500       0.59666500 </v>
   <v>       0.34136600       0.59666500       0.09666500 </v>
   <v>       0.34136600       0.59666500       0.59666500 </v>
   <v>       0.84136600       0.09666500       0.09666500 </v>
   <v>       0.84136600       0.09666500       0.59666500 </v>
   <v>       0.84136600       0.59666500       0.09666500 </v>
   <v>       0.84136600       0.59666500       0.59666500 </v>
   <v>       0.09870000       0.09683600       0.34371100 </v>
   <v>       0.09870000       0.09683600       0.84371100 </v>
   <v>       0.09870000       0.59683600       0.34371100 </v>
   <v>       0.09870000       0.59683600       0.84371100 </v>
   <v>       0.59870000       0.09683600       0.34371100 </v>
   <v>       0.59870000       0.09683600       0.84371100 </v>
   <v>       0.59870000       0.59683600       0.34371100 </v>
   <v>       0.59870000       0.59683600       0.84371100 </v>
   <v>       0.09870000       0.34371100       0.09683600 </v>
   <v>       0.09870000       0.34371100       0.59683600 </v>
   <v>       0.09870000       0.84371100       0.09683600 </v>
   <v>       0.09870000       0.84371100       0.59683600 </v>
   <v>       0.59870000       0.34371100       0.09683600 </v>
   <v>       0.59870000       0.34371100       0.59683600 </v>
   <v>       0.59870000       0.84371100       0.09683600 </v>
   <v>       0.59870000       0.84371100       0.59683600 </v>
   <v>       0.49444700       0.49739900       0.33679800 </v>
   <v>       0.49444700       0.49739900       0.83679800 </v>
   <v>       0.49444700       0.99739900       0.33679800 </v>
   <v>       0.49444700       0.99739900       0.83679800 </v>
   <v>       0.99444700       0.49739900       0.33679800 </v>
   <v>       0.99444700       0.49739900       0.83679800 </v>
   <v>       0.99444700       0.99739900       0.33679800 </v>
   <v>       0.99444700       0.99739900       0.83679800 </v>
   <v>       0.49444700       0.33679800       0.49739900 </v>
   <v>       0.49444700       0.33679800       0.99739900 </v>
   <v>       0.49444700       0.83679800       0.49739900 </v>
   <v>       0.49444700       0.83679800       0.99739900 </v>
   <v>       0.99444700       0.33679800       0.49739900 </v>
   <v>       0.99444700       0.33679800       0.99739900 </v>
   <v>       0.99444700       0.83679800       0.49739900 </v>
   <v>       0.99444700       0.83679800       0.99739900 </v>
   <v>       0.17079500       0.00295000       0.00295000 </v>
   <v>       0.17079500       0.00295000       0.50295000 </v>
   <v>       0.17079500       0.50295000       0.00295000 </v>
   <v>       0.17079500       0.50295000       0.50295000 </v>
   <v>       0.67079500       0.00295000       0.00295000 </v>
   <v>       0.67079500       0.00295000       0.50295000 </v>
   <v>       0.67079500       0.50295000       0.00295000 </v>
   <v>       0.67079500       0.50295000       0.50295000 </v>
   <v>       0.00347500       0.00275500       0.16436200 </v>
   <v>       0.00347500       0.00275500       0.66436200 </v>
   <v>       0.00347500       0.50275500       0.16436200 </v>
   <v>       0.00347500       0.50275500       0.66436200 </v>
   <v>       0.50347500       0.00275500       0.16436200 </v>
   <v>       0.50347500       0.00275500       0.66436200 </v>
   <v>       0.50347500       0.50275500       0.16436200 </v>
   <v>       0.50347500       0.50275500       0.66436200 </v>
   <v>       0.00347500       0.16436200       0.00275500 </v>
   <v>       0.00347500       0.16436200       0.50275500 </v>
   <v>       0.00347500       0.66436200       0.00275500 </v>
   <v>       0.00347500       0.66436200       0.50275500 </v>
   <v>       0.50347500       0.16436200       0.00275500 </v>
   <v>       0.50347500       0.16436200       0.50275500 </v>
   <v>       0.50347500       0.66436200       0.00275500 </v>
   <v>       0.50347500       0.66436200       0.50275500 </v>
   <v>       0.24799500       0.24900900       0.24900900 </v>
   <v>       0.24799500       0.24900900       0.74900900 </v>
   <v>       0.24799500       0.74900900       0.24900900 </v>
   <v>       0.24799500       0.74900900       0.74900900 </v>
   <v>       0.74799500       0.24900900       0.24900900 </v>
   <v>       0.74799500       0.24900900       0.74900900 </v>
   <v>       0.74799500       0.74900900       0.24900900 </v>
   <v>       0.74799500       0.74900900       0.74900900 </v>
   <v>       0.33833600       0.49792800       0.49792800 </v>
   <v>       0.33833600       0.49792800       0.99792800 </v>
   <v>       0.33833600       0.99792800       0.49792800 </v>
   <v>       0.33833600       0.99792800       0.99792800 </v>
   <v>       0.83833600       0.49792800       0.49792800 </v>
   <v>       0.83833600       0.49792800       0.99792800 </v>
   <v>       0.83833600       0.99792800       0.49792800 </v>
   <v>       0.83833600       0.99792800       0.99792800 </v>
   <v>       0.30608800       0.30943700       0.30943700 </v>
   <v>       0.30608800       0.30943700       0.80943700 </v>
   <v>       0.30608800       0.80943700       0.30943700 </v>
   <v>       0.30608800       0.80943700       0.80943700 </v>
   <v>       0.80608800       0.30943700       0.30943700 </v>
   <v>       0.80608800       0.30943700       0.80943700 </v>
   <v>       0.80608800       0.80943700       0.30943700 </v>
   <v>       0.80608800       0.80943700       0.80943700 </v>
   <v>       0.19098900       0.18883500       0.18883500 </v>
   <v>       0.19098900       0.18883500       0.68883500 </v>
   <v>       0.19098900       0.68883500       0.18883500 </v>
   <v>       0.19098900       0.68883500       0.68883500 </v>
   <v>       0.69098900       0.18883500       0.18883500 </v>
   <v>       0.69098900       0.18883500       0.68883500 </v>
   <v>       0.69098900       0.68883500       0.18883500 </v>
   <v>       0.69098900       0.68883500       0.68883500 </v>
  </varray>
  <varray name="velocities" >
   <v>      -0.00006611       0.00006379      -0.00002106 </v>
   <v>      -0.00001604       0.00002803      -0.00001599 </v>
   <v>       0.00000863       0.00002998      -0.00003311 </v>
   <v>       0.00003143       0.00002366      -0.00000489 </v>
   <v>       0.00002776       0.00005007      -0.00008487 </v>
   <v>       0.00000239       0.00006038       0.00001206 </v>
   <v>       0.00004795      -0.00004025      -0.00000550 </v>
   <v>      -0.00003650       0.00001962       0.00006392 </v>
   <v>       0.00005135      -0.00000473       0.00004250 </v>
   <v>      -0.00002460       0.00004418      -0.00005343 </v>
   <v>      -0.00002196      -0.00005377       0.00003977 </v>
   <v>      -0.00007212       0.00003221      -0.00004547 </v>
   <v>      -0.00002177      -0.00006064      -0.00001111 </v>
   <v>       0.00008018      -0.00003649       0.00003600 </v>
   <v>      -0.00001612      -0.00002208       0.00001205 </v>
   <v>      -0.00001445      -0.00004765      -0.00002549 </v>
   <v>      -0.00004511       0.00005151       0.00000255 </v>
   <v>      -0.00002299       0.00000502      -0.00000805 </v>
   <v>      -0.00000881       0.00003482      -0.00000085 </v>
   <v>       0.00000056      -0.00001198       0.00005208 </v>
   <v>       0.00002166      -0.00003440       0.00003269 </v>
   <v>       0.00002838      -0.00001949      -0.00003794 </v>
   <v>       0.00009158       0.00002562      -0.00008056 </v>
   <v>       0.00000089      -0.00004498       0.00005341 </v>
   <v>       0.00001398       0.00003331      -0.00001063 </v>
   <v>      -0.00002800       0.00004672       0.00000992 </v>
   <v>       0.00003072      -0.00003055       0.00001954 </v>
   <v>       0.00000344       0.00001767      -0.00003885 </v>
   <v>       0.00001355       0.00000406       0.00001764 </v>
   <v>      -0.00000918       0.00001708      -0.00003359 </v>
   <v>       0.00000371      -0.00008724      -0.00000207 </v>
   <v>      -0.00001744       0.00001439       0.00000603 </v>
   <v>      -0.00001182       0.00003198      -0.00001831 </v>
   <v>      -0.00000773       0.00007237      -0.00000196 </v>
   <v>      -0.00001347       0.00004803      -0.00001103 </v>
   <v>       0.00002224       0.00000537      -0.00003615 </v>
   <v>      -0.00004415      -0.00001652      -0.00001492 </v>
   <v>       0.00004393      -0.00000296      -0.00003449 </v>
   <v>      -0.00003356       0.00007087       0.00001499 </v>
   <v>       0.00004361      -0.00000256      -0.00001245 </v>
   <v>       0.00001768       0.00000501       0.00000198 </v>
   <v>       0.00003684      -0.00001881      -0.00001612 </v>
   <v>      -0.00002485       0.00003803      -0.00004137 </v>
   <v>       0.00006901      -0.00006246       0.00006209 </v>
   <v>      -0.00001945      -0.00004080       0.00000399 </v>
   <v>      -0.00002995       0.00003616      -0.00002513 </v>
   <v>       0.00005719      -0.00003459       0.00004938 </v>
   <v>      -0.00002251      -0.00001241       0.00002354 </v>
   <v>      -0.00003297       0.00001205       0.00002035 </v>
   <v>       0.00000566       0.00001002       0.00002775 </v>
   <v>      -0.00001814      -0.00002736       0.00004105 </v>
   <v>      -0.00002156       0.00001898      -0.00004601 </v>
   <v>      -0.00002442       0.00008906       0.00000177 </v>
   <v>       0.00002146      -0.00001611       0.00000032 </v>
   <v>       0.00002811       0.00001943      -0.00003713 </v>
   <v>       0.00003341       0.00000736      -0.00004925 </v>
   <v>      -0.00004103       0.00000384       0.00001415 </v>
   <v>      -0.00001573       0.00001478      -0.00002464 </v>
   <v>       0.00003833      -0.00002238      -0.00001275 </v>
   <v>       0.00003102      -0.00005949       0.00005118 </v>
   <v>      -0.00002160      -0.00001657       0.00002020 </v>
   <v>      -0.00005915       0.00002666      -0.00002307 </v>
   <v>      -0.00001845      -0.00000979       0.00001067 </v>
   <v>      -0.00002252       0.00001586      -0.00003741 </v>
   <v>      -0.00006826      -0.00000422       0.00004384 </v>
   <v>      -0.00004540       0.00001795      -0.00002623 </v>
   <v>       0.00003594       0.00002287      -0.00004380 </v>
   <v>       0.00003615      -0.00002290      -0.00002237 </v>
   <v>       0.00002971       0.00001911       0.00002040 </v>
   <v>      -0.00002249       0.00004356      -0.00002607 </v>
   <v>       0.00004338      -0.00005517      -0.00000785 </v>
   <v>       0.00002020       0.00004178      -0.00000700 </v>
   <v>      -0.00003402      -0.00005409       0.00006324 </v>
   <v>       0.00001429       0.00000470      -0.00004352 </v>
   <v>       0.00002521      -0.00001509      -0.00001229 </v>
   <v>      -0.00001797       0.00003060      -0.00003259 </v>
   <v>      -0.00002722      -0.00000289      -0.00000985 </v>
   <v>       0.00005484      -0.00002385      -0.00003817 </v>
   <v>       0.00001920      -0.00002152      -0.00002932 </v>
   <v>       0.00004158      -0.00006998      -0.00000310 </v>
   <v>       0.00002915      -0.00005071      -0.00000411 </v>
   <v>      -0.00002273       0.00005950      -0.00000155 </v>
   <v>      -0.00001693       0.00004366      -0.00005435 </v>
   <v>       0.00003173      -0.00000235       0.00004311 </v>
   <v>      -0.00000818      -0.00004672       0.00002679 </v>
   <v>      -0.00000505       0.00002138       0.00002392 </v>
   <v>      -0.00004594      -0.00004522       0.00001725 </v>
   <v>      -0.00002747      -0.00002941       0.00005751 </v>
   <v>       0.00007329      -0.00002562      -0.00000705 </v>
   <v>      -0.00002776      -0.00003358       0.00003067 </v>
   <v>       0.00004175      -0.00002812       0.00001121 </v>
   <v>       0.00000641       0.00002652       0.00000588 </v>
   <v>       0.00002619      -0.00000178      -0.00001503 </v>
   <v>      -0.00000669       0.00005504       0.00001431 </v>
   <v>       0.00001943      -0.00003216       0.00000358 </v>
   <v>       0.00003271      -0.00000191       0.00000110 </v>
   <v>      -0.00006452       0.00005611       0.00005088 </v>
   <v>      -0.00004492       0.00002256       0.00004619 </v>
   <v>      -0.00000360      -0.00000352       0.00003757 </v>
   <v>      -0.00006146      -0.00000205       0.00001835 </v>
   <v>       0.00001177       0.00002889      -0.00003527 </v>
   <v>       0.00001938      -0.00000798      -0.00000937 </v>
   <v>       0.00000554      -0.00001608      -0.00001811 </v>
   <v>       0.00000556      -0.00008377       0.00003143 </v>
   <v>      -0.00001163       0.00000384      -0.00000200 </v>
   <v>      -0.00001306      -0.00004734       0.00005074 </v>
   <v>      -0.00001381      -0.00000421      -0.00004238 </v>
   <v>       0.00000295      -0.00001114       0.00004737 </v>
   <v>      -0.00000200       0.00000430       0.00000322 </v>
   <v>       0.00001015       0.00001480      -0.00000418 </v>
   <v>       0.00002567       0.00000490      -0.00001874 </v>
   <v>       0.00001444      -0.00001188       0.00000671 </v>
   <v>      -0.00001734       0.00001413      -0.00000379 </v>
   <v>      -0.00002122       0.00001699      -0.00003328 </v>
   <v>      -0.00003608      -0.00000854      -0.00003999 </v>
   <v>       0.00003098       0.00003641      -0.00002801 </v>
   <v>      -0.00000583      -0.00005214      -0.00000122 </v>
   <v>      -0.00005062      -0.00000072       0.00006842 </v>
   <v>       0.00002272      -0.00003258       0.00002039 </v>
   <v>       0.00001019      -0.00002023       0.00006528 </v>
  </varray>
 </structure>
 <calculation>
  <scstep>
   <time name="dav">    6.67    6.67</time>
   <time name="total">    6.96    6.96</time>
   <energy>
    <i name="alphaZ">   1184.40993130 </i>
    <i name="ewald"> -11622.19771033 </i>
    <i name="hartreedc">  -1075.09491250 </i>
    <i name="XCdc">   1015.51328297 </i>
    <i name="pawpsdc">   6780.51620165 </i>
    <i name="pawaedc">  -6712.07122612 </i>
    <i name="eentropy">      0.00000000 </i>
    <i name="bandstr">   1601.95675826 </i>
    <i name="atom">  10363.97701633 </i>
    <i name="e_fr_energy">   1537.00934157 </i>
    <i name="e_wo_entrp">   1537.00934157 </i>
    <i name="e_0_energy">   1537.00934157 </i>
   </energy>
  </scstep>
  <scstep>
   <time name="dav">    7.67    7.67</time>
   <time name="total">    7.70    7.70</time>
   <energy>
    <i name="e_fr_energy">   -780.49617471 </i>
    <i name="e_wo_entrp">   -780.49617471 </i>
    <i name="e_0_energy">   -780.49617471 </i>
   </energy>
  </scstep>
  <scstep>
   <time name="dav">    7.63    7.64</time>
   <time name="total">    7.66    7.67</time>
   <energy>
    <i name="e_fr_energy">   -927.82212910 </i>
    <i name="e_wo_entrp">   -927.82212910 </i>
    <i name="e_0_energy">   -927.82212910 </i>
   </energy>
  </scstep>
  <scstep>
   <time name="dav">    7.56    7.57</time>
   <time name="total">    7.59    7.59</time>
   <energy>
    <i name="e_fr_energy">   -931.42889610 </i>
    <i name="e_wo_entrp">   -931.42889610 </i>
    <i name="e_0_energy">   -931.42889610 </i>
   </energy>
  </scstep>
  <scstep>
   <time name="dav">    7.55    7.55</time>
   <time name="total">    9.31    9.31</time>
   <energy>
    <i name="e_fr_energy">   -931.53048046 </i>
    <i name="e_wo_entrp">   -931.53048046 </i>
    <i name="e_0_energy">   -931.53048046 </i>
   </energy>
  </scstep>
  <scstep>
   <time name="diag">    1.44    1.44</time>
   <time name="diis">    6.13    6.09</time>
   <time name="orth">    0.04    0.04</time>
   <time name="total">    9.61    9.59</time>
   <energy>
    <i name="e_fr_energy">   -886.19842709 </i>
    <i name="e_wo_entrp">   -886.19842709 </i>
    <i name="e_0_energy">   -886.19842709 </i>
   </energy>
  </scstep>
  <scstep>
   <time name="diag">    1.43    1.43</time>
   <time name="diis">    6.00    5.94</time>
   <time name="orth">    0.04    0.04</time>
   <time name="total">    9.45    9.40</time>
   <energy>
    <i name="e_fr_energy">   -877.99186961 </i>
    <i name="e_wo_entrp">   -877.99186961 </i>
    <i name="e_0_energy">   -877.99186961 </i>
   </energy>
  </scstep>
  <scstep>
   <time name="diag">    1.43    1.43</time>
   <time name="diis">    6.03    5.99</time>
   <time name="orth">    0.04    0.04</time>
   <time name="total">    9.49    9.44</time>
   <energy>
    <i name="e_fr_energy">   -877.59109244 </i>
    <i name="e_wo_entrp">   -877.59109244 </i>
    <i name="e_0_energy">   -877.59109244 </i>
   </energy>
  </scstep>
  <scstep>
   <time name="diag">    1.44    1.43</time>
   <time name="diis">    6.05    6.01</time>
   <time name="orth">    0.04    0.04</time>
   <time name="total">    9.54    9.49</time>
   <energy>
    <i name="e_fr_energy">   -877.29658567 </i>
    <i name="e_wo_entrp">   -877.29658567 </i>
    <i name="e_0_energy">   -877.29658567 </i>
   </energy>
  </scstep>
  <scstep>
   <time name="diag">    1.44    1.44</time>
   <time name="diis">    6.35    6.29</time>
   <time name="orth">    0.04    0.04</time>
   <time name="total">    9.84    9.80</time>
   <energy>
    <i name="e_fr_energy">   -877.29752100 </i>
    <i name="e_wo_entrp">   -877.29752100 </i>
    <i name="e_0_energy">   -877.29752100 </i>
   </energy>
  </scstep>
  <scstep>
   <time name="diag">    1.44    1.44</time>
   <time name="diis">    6.14    6.09</time>
   <time name="orth">    0.04    0.04</time>
   <time name="total">    9.60    9.55</time>
   <energy>
    <i name="e_fr_energy">   -877.28744465 </i>
    <i name="e_wo_entrp">   -877.28744465 </i>
    <i name="e_0_energy">   -877.28744465 </i>
   </energy>
  </scstep>
  <scstep>
   <time name="diag">    1.43    1.44</time>
   <time name="diis">    6.07    6.01</time>
   <time name="orth">    0.04    0.04</time>
   <time name="total">    9.52    9.47</time>
   <energy>
    <i name="e_fr_energy">   -877.28905975 </i>
    <i name="e_wo_entrp">   -877.28905975 </i>
    <i name="e_0_energy">   -877.28905975 </i>
   </energy>
  </scstep>
  <scstep>
   <time name="diag">    1.42    1.42</time>
   <time name="diis">    6.26    6.18</time>
   <time name="orth">    0.04    0.04</time>
   <time name="total">    9.74    9.65</time>
   <energy>
    <i name="e_fr_energy">   -877.28845702 </i>
    <i name="e_wo_entrp">   -877.28845702 </i>
    <i name="e_0_energy">   -877.28845702 </i>
   </energy>
  </scstep>
  <scstep>
   <time name="diag">    1.43    1.43</time>
   <time name="diis">    5.96    5.91</time>
   <time name="orth">    0.04    0.04</time>
   <time name="total">    9.44    9.38</time>
   <energy>
    <i name="e_fr_energy">   -877.28846889 </i>
    <i name="e_wo_entrp">   -877.28846889 </i>
    <i name="e_0_energy">   -877.28846889 </i>
   </energy>
  </scstep>
  <scstep>
   <time name="diag">    1.43    1.43</time>
   <time name="diis">    4.02    4.02</time>
   <time name="orth">    0.04    0.04</time>
   <time name="total">    5.76    5.76</time>
   <energy>
    <i name="alphaZ">   1184.40993130 </i>
    <i name="ewald"> -11622.19771033 </i>
    <i name="hartreedc">  -1526.77182100 </i>
    <i name="XCdc">   1049.29687819 </i>
    <i name="pawpsdc">  35898.78640250 </i>
    <i name="pawaedc"> -35840.81077195 </i>
    <i name="eentropy">      0.00000000 </i>
    <i name="bandstr">   -383.97837035 </i>
    <i name="atom">  10363.97701633 </i>
    <i name="e_fr_energy">   -877.28844531 </i>
    <i name="e_wo_entrp">   -877.28844531 </i>
    <i name="e_0_energy">   -877.28844531 </i>
   </energy>
  </scstep>
  <structure>
   <crystal>
    <varray name="basis" >
     <v>       9.23908700       0.05018900       4.19114300 </v>
     <v>       2.67674700       9.09957000       4.28584700 </v>
     <v>      -0.05144400       0.07203300      10.40806300 </v>
    </varray>
    <i name="volume">    873.53217688 </i>
    <varray name="rec_basis" >
     <v>       0.10806720      -0.03214562       0.00075662 </v>
     <v>      -0.00025239       0.11032978      -0.00076483 </v>
     <v>      -0.04341282      -0.03248728       0.09608962 </v>
    </varray>
   </crystal>
   <varray name="positions" >
    <v>       0.15792300       0.40375800       0.40375800 </v>
    <v>       0.15792300       0.40375800       0.90375800 </v>
    <v>       0.15792300       0.90375800       0.40375800 </v>
    <v>       0.15792300       0.90375800       0.90375800 </v>
    <v>       0.65792300       0.40375800       0.40375800 </v>
    <v>       0.65792300       0.40375800       0.90375800 </v>
    <v>       0.65792300       0.90375800       0.40375800 </v>
    <v>       0.65792300       0.90375800       0.90375800 </v>
    <v>       0.40163200       0.40233800       0.15722000 </v>
    <v>       0.40163200       0.40233800       0.65722000 </v>
    <v>       0.40163200       0.90233800       0.15722000 </v>
    <v>       0.40163200       0.90233800       0.65722000 </v>
    <v>       0.90163200       0.40233800       0.15722000 </v>
    <v>       0.90163200       0.40233800       0.65722000 </v>
    <v>       0.90163200       0.90233800       0.15722000 </v>
    <v>       0.90163200       0.90233800       0.65722000 </v>
    <v>       0.40163200       0.15722000       0.40233800 </v>
    <v>       0.40163200       0.15722000       0.90233800 </v>
    <v>       0.40163200       0.65722000       0.40233800 </v>
    <v>       0.40163200       0.65722000       0.90233800 </v>
    <v>       0.90163200       0.15722000       0.40233800 </v>
    <v>       0.90163200       0.15722000       0.90233800 </v>
    <v>       0.90163200       0.65722000       0.40233800 </v>
    <v>       0.90163200       0.65722000       0.90233800 </v>
    <v>       0.34136600       0.09666500       0.09666500 </v>
    <v>       0.34136600       0.09666500       0.59666500 </v>
    <v>       0.34136600       0.59666500       0.09666500 </v>
    <v>       0.34136600       0.59666500       0.59666500 </v>
    <v>       0.84136600       0.09666500       0.09666500 </v>
    <v>       0.84136600       0.09666500       0.59666500 </v>
    <v>       0.84136600       0.59666500       0.09666500 </v>
    <v>       0.84136600       0.59666500       0.59666500 </v>
    <v>       0.09870000       0.09683600       0.34371100 </v>
    <v>       0.09870000       0.09683600       0.84371100 </v>
    <v>       0.09870000       0.59683600       0.34371100 </v>
    <v>       0.09870000       0.59683600       0.84371100 </v>
    <v>       0.59870000       0.09683600       0.34371100 </v>
    <v>       0.59870000       0.09683600       0.84371100 </v>
    <v>       0.59870000       0.59683600       0.34371100 </v>
    <v>       0.59870000       0.59683600       0.84371100 </v>
    <v>       0.09870000       0.34371100       0.09683600 </v>
    <v>       0.09870000       0.34371100       0.59683600 </v>
    <v>       0.09870000       0.84371100       0.09683600 </v>
    <v>       0.09870000       0.84371100       0.59683600 </v>
    <v>       0.59870000       0.34371100       0.09683600 </v>
    <v>       0.59870000       0.34371100       0.59683600 </v>
    <v>       0.59870000       0.84371100       0.09683600 </v>
    <v>       0.59870000       0.84371100       0.59683600 </v>
    <v>       0.49444700       0.49739900       0.33679800 </v>
    <v>       0.49444700       0.49739900       0.83679800 </v>
    <v>       0.49444700       0.99739900       0.33679800 </v>
    <v>       0.49444700       0.99739900       0.83679800 </v>
    <v>       0.99444700       0.49739900       0.33679800 </v>
    <v>       0.99444700       0.49739900       0.83679800 </v>
    <v>       0.99444700       0.99739900       0.33679800 </v>
    <v>       0.99444700       0.99739900       0.83679800 </v>
    <v>       0.49444700       0.33679800       0.49739900 </v>
    <v>       0.49444700       0.33679800       0.99739900 </v>
    <v>       0.49444700       0.83679800       0.49739900 </v>
    <v>       0.49444700       0.83679800       0.99739900 </v>
    <v>       0.99444700       0.33679800       0.49739900 </v>
    <v>       0.99444700       0.33679800       0.99739900 </v>
    <v>       0.99444700       0.83679800       0.49739900 </v>
    <v>       0.99444700       0.83679800       0.99739900 </v>
    <v>       0.17079500       0.00295000       0.00295000 </v>
    <v>       0.17079500       0.00295000       0.50295000 </v>
    <v>       0.17079500       0.50295000       0.00295000 </v>
    <v>       0.17079500       0.50295000       0.50295000 </v>
    <v>       0.67079500       0.00295000       0.00295000 </v>
    <v>       0.67079500       0.00295000       0.50295000 </v>
    <v>       0.67079500       0.50295000       0.00295000 </v>
    <v>       0.67079500       0.50295000       0.50295000 </v>
    <v>       0.00347500       0.00275500       0.16436200 </v>
    <v>       0.00347500       0.00275500       0.66436200 </v>
    <v>       0.00347500       0.50275500       0.16436200 </v>
    <v>       0.00347500       0.50275500       0.66436200 </v>
    <v>       0.50347500       0.00275500       0.16436200 </v>
    <v>       0.50347500       0.00275500       0.66436200 </v>
    <v>       0.50347500       0.50275500       0.16436200 </v>
    <v>       0.50347500       0.50275500       0.66436200 </v>
    <v>       0.00347500       0.16436200       0.00275500 </v>
    <v>       0.00347500       0.16436200       0.50275500 </v>
    <v>       0.00347500       0.66436200       0.00275500 </v>
    <v>       0.00347500       0.66436200       0.50275500 </v>
    <v>       0.50347500       0.16436200       0.00275500 </v>
    <v>       0.50347500       0.16436200       0.50275500 </v>
    <v>       0.50347500       0.66436200       0.00275500 </v>
    <v>       0.50347500       0.66436200       0.50275500 </v>
    <v>       0.24799500       0.24900900       0.24900900 </v>
    <v>       0.24799500       0.24900900       0.74900900 </v>
    <v>       0.24799500       0.74900900       0.24900900 </v>
    <v>       0.24799500       0.74900900       0.74900900 </v>
    <v>       0.74799500       0.24900900       0.24900900 </v>
    <v>       0.74799500       0.24900900       0.74900900 </v>
    <v>       0.74799500       0.74900900       0.24900900 </v>
    <v>       0.74799500       0.74900900       0.74900900 </v>
    <v>       0.33833600       0.49792800       0.49792800 </v>
    <v>       0.33833600       0.49792800       0.99792800 </v>
    <v>       0.33833600       0.99792800       0.49792800 </v>
    <v>       0.33833600       0.99792800       0.99792800 </v>
    <v>       0.83833600       0.49792800       0.49792800 </v>
    <v>       0.83833600       0.49792800       0.99792800 </v>
    <v>       0.83833600       0.99792800       0.49792800 </v>
    <v>       0.83833600       0.99792800       0.99792800 </v>
    <v>       0.30608800       0.30943700       0.30943700 </v>
    <v>       0.30608800       0.30943700       0.80943700 </v>
    <v>       0.30608800       0.80943700       0.30943700 </v>
    <v>       0.30608800       0.80943700       0.80943700 </v>
    <v>       0.80608800       0.30943700       0.30943700 </v>
    <v>       0.80608800       0.30943700       0.80943700 </v>
    <v>       0.80608800       0.80943700       0.30943700 </v>
    <v>       0.80608800       0.80943700       0.80943700 </v>
    <v>       0.19098900       0.18883500       0.18883500 </v>
    <v>       0.19098900       0.18883500       0.68883500 </v>
    <v>       0.19098900       0.68883500       0.18883500 </v>
    <v>       0.19098900       0.68883500       0.68883500 </v>
    <v>       0.69098900       0.18883500       0.18883500 </v>
    <v>       0.69098900       0.18883500       0.68883500 </v>
    <v>       0.69098900       0.68883500       0.18883500 </v>
    <v>       0.69098900       0.68883500       0.68883500 </v>
   </varray>
  </structure>
  <varray name="forces" >
   <v>       0.00909212      -0.01454106      -0.01738591 </v>
   <v>       0.00910093      -0.01454133      -0.01739528 </v>
   <v>       0.00910552      -0.01455144      -0.01739400 </v>
   <v>       0.00909890      -0.01453500      -0.01739101 </v>
   <v>       0.00909662      -0.01454263      -0.01739270 </v>
   <v>       0.00910772      -0.01454744      -0.01739913 </v>
   <v>       0.00908328      -0.01454070      -0.01739041 </v>
   <v>       0.00909751      -0.01454589      -0.01739953 </v>
   <v>      -0.11847006      -0.13031016       0.03034882 </v>
   <v>      -0.11846428      -0.13031852       0.03035026 </v>
   <v>      -0.11847128      -0.13031650       0.03035456 </v>
   <v>      -0.11847153      -0.13030102       0.03034513 </v>
   <v>      -0.11847972      -0.13032185       0.03036105 </v>
   <v>      -0.11847962      -0.13033455       0.03034941 </v>
   <v>      -0.11848122      -0.13031134       0.03036526 </v>
   <v>      -0.11848357      -0.13032566       0.03034599 </v>
   <v>      -0.04572888       0.11039519      -0.13289144 </v>
   <v>      -0.04572364       0.11037723      -0.13289209 </v>
   <v>      -0.04573403       0.11040461      -0.13290655 </v>
   <v>      -0.04574105       0.11041459      -0.13290080 </v>
   <v>      -0.04573616       0.11040606      -0.13290271 </v>
   <v>      -0.04572785       0.11039458      -0.13290126 </v>
   <v>      -0.04573816       0.11040887      -0.13291863 </v>
   <v>      -0.04572083       0.11041583      -0.13290343 </v>
   <v>      -0.04301330       0.03499379       0.03242814 </v>
   <v>      -0.04300518       0.03499813       0.03244543 </v>
   <v>      -0.04300926       0.03499857       0.03244258 </v>
   <v>      -0.04302737       0.03501070       0.03245833 </v>
   <v>      -0.04301386       0.03499532       0.03244582 </v>
   <v>      -0.04303125       0.03500284       0.03243792 </v>
   <v>      -0.04301703       0.03501043       0.03244199 </v>
   <v>      -0.04303128       0.03500061       0.03244100 </v>
   <v>       0.09547435       0.09962225       0.03468875 </v>
   <v>       0.09548012       0.09963442       0.03467742 </v>
   <v>       0.09547635       0.09962421       0.03469087 </v>
   <v>       0.09548884       0.09962999       0.03468606 </v>
   <v>       0.09547136       0.09962378       0.03468768 </v>
   <v>       0.09548073       0.09962494       0.03469805 </v>
   <v>       0.09547746       0.09962753       0.03468832 </v>
   <v>       0.09547717       0.09962788       0.03468809 </v>
   <v>       0.05458706      -0.03569005       0.12646476 </v>
   <v>       0.05458005      -0.03571084       0.12646356 </v>
   <v>       0.05457965      -0.03569316       0.12646442 </v>
   <v>       0.05459534      -0.03570025       0.12647382 </v>
   <v>       0.05458854      -0.03569480       0.12646949 </v>
   <v>       0.05458218      -0.03569686       0.12646203 </v>
   <v>       0.05457823      -0.03569759       0.12646632 </v>
   <v>       0.05457834      -0.03569928       0.12646997 </v>
   <v>      -0.02504159       0.01414149       0.07518673 </v>
   <v>      -0.02504260       0.01414682       0.07519364 </v>
   <v>      -0.02504149       0.01413766       0.07518964 </v>
   <v>      -0.02503474       0.01414041       0.07519177 </v>
   <v>      -0.02505018       0.01415298       0.07519090 </v>
   <v>      -0.02505294       0.01413254       0.07520177 </v>
   <v>      -0.02504005       0.01415842       0.07518808 </v>
   <v>      -0.02504230       0.01414554       0.07519972 </v>
   <v>      -0.00773819       0.07140965       0.03635709 </v>
   <v>      -0.00772946       0.07140713       0.03634708 </v>
   <v>      -0.00774139       0.07140947       0.03634054 </v>
   <v>      -0.00772844       0.07139887       0.03634884 </v>
   <v>      -0.00773650       0.07139993       0.03635911 </v>
   <v>      -0.00773419       0.07140579       0.03635176 </v>
   <v>      -0.00774241       0.07140460       0.03636112 </v>
   <v>      -0.00774038       0.07141372       0.03635175 </v>
   <v>      -0.19189722       0.05524992      -0.00404174 </v>
   <v>      -0.19192267       0.05525133      -0.00405332 </v>
   <v>      -0.19191151       0.05524636      -0.00404333 </v>
   <v>      -0.19191799       0.05526477      -0.00403937 </v>
   <v>      -0.19190930       0.05525377      -0.00404247 </v>
   <v>      -0.19190573       0.05525211      -0.00403984 </v>
   <v>      -0.19190036       0.05525999      -0.00406134 </v>
   <v>      -0.19190703       0.05525743      -0.00404254 </v>
   <v>       0.06392160       0.02320264       0.01455675 </v>
   <v>       0.06394158       0.02319382       0.01455312 </v>
   <v>       0.06393619       0.02318663       0.01455058 </v>
   <v>       0.06394130       0.02320238       0.01455351 </v>
   <v>       0.06393113       0.02319547       0.01454216 </v>
   <v>       0.06393093       0.02319829       0.01454463 </v>
   <v>       0.06391970       0.02320577       0.01456153 </v>
   <v>       0.06392868       0.02319511       0.01454912 </v>
   <v>       0.05122416      -0.01889904       0.04309548 </v>
   <v>       0.05121491      -0.01891789       0.04308574 </v>
   <v>       0.05121328      -0.01889741       0.04309747 </v>
   <v>       0.05122341      -0.01889935       0.04309661 </v>
   <v>       0.05121648      -0.01890357       0.04308749 </v>
   <v>       0.05120936      -0.01890572       0.04309869 </v>
   <v>       0.05122067      -0.01889797       0.04309274 </v>
   <v>       0.05122470      -0.01890038       0.04309581 </v>
   <v>       0.08651568       0.13307007       0.23476011 </v>
   <v>       0.08651637       0.13305045       0.23477127 </v>
   <v>       0.08653468       0.13306896       0.23477255 </v>
   <v>       0.08651177       0.13306349       0.23474695 </v>
   <v>       0.08652721       0.13307714       0.23478965 </v>
   <v>       0.08653773       0.13308047       0.23480386 </v>
   <v>       0.08651761       0.13305343       0.23476154 </v>
   <v>       0.08651578       0.13306981       0.23476691 </v>
   <v>       0.23810892      -0.03631422       0.05259591 </v>
   <v>       0.23813123      -0.03631276       0.05260656 </v>
   <v>       0.23814178      -0.03629984       0.05257942 </v>
   <v>       0.23816636      -0.03630311       0.05260958 </v>
   <v>       0.23814518      -0.03630897       0.05259656 </v>
   <v>       0.23816004      -0.03629217       0.05258426 </v>
   <v>       0.23811566      -0.03630154       0.05262078 </v>
   <v>       0.23814253      -0.03629837       0.05261219 </v>
   <v>      -0.10446051      -0.05427471      -0.12660557 </v>
   <v>      -0.10445063      -0.05429753      -0.12659945 </v>
   <v>      -0.10444918      -0.05429174      -0.12661619 </v>
   <v>      -0.10446421      -0.05426428      -0.12659263 </v>
   <v>      -0.10445739      -0.05430426      -0.12662428 </v>
   <v>      -0.10443186      -0.05427617      -0.12659452 </v>
   <v>      -0.10444967      -0.05430453      -0.12658005 </v>
   <v>      -0.10444725      -0.05430941      -0.12658857 </v>
   <v>      -0.06614230      -0.25058849      -0.39897552 </v>
   <v>      -0.06614024      -0.25059209      -0.39897547 </v>
   <v>      -0.06610907      -0.25058175      -0.39896862 </v>
   <v>      -0.06611284      -0.25059692      -0.39897593 </v>
   <v>      -0.06612441      -0.25057050      -0.39896662 </v>
   <v>      -0.06610927      -0.25057599      -0.39897723 </v>
   <v>      -0.06613746      -0.25059145      -0.39896772 </v>
   <v>      -0.06613646      -0.25058416      -0.39897270 </v>
  </varray>
  <energy>
   <i name="e_fr_energy">   -877.28844531 </i>
   <i name="e_wo_entrp">   -877.28844531 </i>
   <i name="e_0_energy">   -877.28844531 </i>
   <i name="kinetic">      0.07729956 </i>
   <i name="lattice kinetic">      0.00000000 </i>
   <i name="nosepot">      0.00000000 </i>
   <i name="nosekinetic">      0.00000001 </i>
   <i name="total">   -877.21114575 </i>
  </energy>
  <time name="totalsc">  146.66  146.82</time>
 </calculation>
 <calculation>
  <scstep>
   <time name="dav">    7.27    7.28</time>
   <time name="total">    9.25    9.27</time>
   <energy>
    <i name="alphaZ">   1184.40993130 </i>
    <i name="ewald"> -11622.29943465 </i>
    <i name="hartreedc">  -1526.66420203 </i>
    <i name="XCdc">   1049.29161033 </i>
    <i name="pawpsdc">  35899.09416508 </i>
    <i name="pawaedc"> -35841.11661627 </i>
    <i name="eentropy">      0.00000000 </i>
    <i name="bandstr">   -383.98199509 </i>
    <i name="atom">  10363.97701633 </i>
    <i name="e_fr_energy">   -877.28952499 </i>
    <i name="e_wo_entrp">   -877.28952499 </i>
    <i name="e_0_energy">   -877.28952499 </i>
   </energy>
  </scstep>
  <scstep>
   <time name="diag">    1.43    1.43</time>
   <time name="diis">    6.02    5.96</time>
   <time name="orth">    0.04    0.04</time>
   <time name="total">    7.78    7.72</time>
   <energy>
    <i name="alphaZ">   1184.40993130 </i>
    <i name="ewald"> -11622.29943465 </i>
    <i name="hartreedc">  -1526.63139998 </i>
    <i name="XCdc">   1049.28980663 </i>
    <i name="pawpsdc">  35899.24691259 </i>
    <i name="pawaedc"> -35841.26835057 </i>
    <i name="eentropy">      0.00000000 </i>
    <i name="bandstr">   -384.01402567 </i>
    <i name="atom">  10363.97701633 </i>
    <i name="e_fr_energy">   -877.28954402 </i>
    <i name="e_wo_entrp">   -877.28954402 </i>
    <i name="e_0_energy">   -877.28954402 </i>
   </energy>
  </scstep>
  <structure>
   <crystal>
    <varray name="basis" >
     <v>       9.23908700       0.05018900       4.19114300 </v>
     <v>       2.67674700       9.09957000       4.28584700 </v>
     <v>      -0.05144400       0.07203300      10.40806300 </v>
    </varray>
    <i name="volume">    873.53217688 </i>
    <varray name="rec_basis" >
     <v>       0.10806720      -0.03214562       0.00075662 </v>
     <v>      -0.00025239       0.11032978      -0.00076483 </v>
     <v>      -0.04341282      -0.03248728       0.09608962 </v>
    </varray>
   </crystal>
   <varray name="positions" >
    <v>       0.15785722       0.40382143       0.40373658 </v>
    <v>       0.15790729       0.40378567       0.90374165 </v>
    <v>       0.15793196       0.90378762       0.40372453 </v>
    <v>       0.15795475       0.90378130       0.90375275 </v>
    <v>       0.65795109       0.40380771       0.40367277 </v>
    <v>       0.65792571       0.40381803       0.90376970 </v>
    <v>       0.65797127       0.90371740       0.40375214 </v>
    <v>       0.65788683       0.90377726       0.90382156 </v>
    <v>       0.40168144       0.40233006       0.15726524 </v>
    <v>       0.40160549       0.40237897       0.65716931 </v>
    <v>       0.40160813       0.90228102       0.15726251 </v>
    <v>       0.40155797       0.90236700       0.65717728 </v>
    <v>       0.90160832       0.40227416       0.15721164 </v>
    <v>       0.90171027       0.40229830       0.65725874 </v>
    <v>       0.90161397       0.90231271       0.15723479 </v>
    <v>       0.90161564       0.90228714       0.65719725 </v>
    <v>       0.40158498       0.15727424       0.40233734 </v>
    <v>       0.40160710       0.15722776       0.90232674 </v>
    <v>       0.40162128       0.65725756       0.40233394 </v>
    <v>       0.40163065       0.65721076       0.90238687 </v>
    <v>       0.90165175       0.15718835       0.40236748 </v>
    <v>       0.90165847       0.15720325       0.90229686 </v>
    <v>       0.90172167       0.65724836       0.40225423 </v>
    <v>       0.90163098       0.65717776       0.90238820 </v>
    <v>       0.34137871       0.09669916       0.09665522 </v>
    <v>       0.34133673       0.09671257       0.59667578 </v>
    <v>       0.34139544       0.59663530       0.09668539 </v>
    <v>       0.34136816       0.59668353       0.59662701 </v>
    <v>       0.84137827       0.09666992       0.09668350 </v>
    <v>       0.84135554       0.09668294       0.59663226 </v>
    <v>       0.84136843       0.59657862       0.09666379 </v>
    <v>       0.84134728       0.59668025       0.59667189 </v>
    <v>       0.09868978       0.09687042       0.34369178 </v>
    <v>       0.09869387       0.09691080       0.84370814 </v>
    <v>       0.09868813       0.59688646       0.34369907 </v>
    <v>       0.09872384       0.59684381       0.84367395 </v>
    <v>       0.59865745       0.09682192       0.34369518 </v>
    <v>       0.59874553       0.09683547       0.84367560 </v>
    <v>       0.59866804       0.59690931       0.34372509 </v>
    <v>       0.59874521       0.59683588       0.84369765 </v>
    <v>       0.09871928       0.34371510       0.09684042 </v>
    <v>       0.09873844       0.34369128       0.59682232 </v>
    <v>       0.09867675       0.84374812       0.09679707 </v>
    <v>       0.09877061       0.84364764       0.59690053 </v>
    <v>       0.59868215       0.34366930       0.09684243 </v>
    <v>       0.59867165       0.34374625       0.59681331 </v>
    <v>       0.59875879       0.84367551       0.09688782 </v>
    <v>       0.59867909       0.84369768       0.59686197 </v>
    <v>       0.49441335       0.49741138       0.33682010 </v>
    <v>       0.49445198       0.49740936       0.83682750 </v>
    <v>       0.49442817       0.99737197       0.33684080 </v>
    <v>       0.49442476       0.99741832       0.83675375 </v>
    <v>       0.99442190       0.49748839       0.33680152 </v>
    <v>       0.99446777       0.49738322       0.83680007 </v>
[...]
       <r>     6.8316     0.0000   384.0000 </r>
       <r>     6.9193     0.0000   384.0000 </r>
       <r>     7.0069     0.0000   384.0000 </r>
       <r>     7.0945     0.0000   384.0000 </r>
       <r>     7.1821     0.0000   384.0000 </r>
       <r>     7.2698     0.0000   384.0000 </r>
       <r>     7.3574     0.0000   384.0000 </r>
       <r>     7.4450     0.0000   384.0000 </r>
       <r>     7.5326     0.0000   384.0000 </r>
       <r>     7.6203     0.0000   384.0000 </r>
       <r>     7.7079     0.0000   384.0000 </r>
       <r>     7.7955     0.0000   384.0000 </r>
       <r>     7.8832     0.0000   384.0000 </r>
       <r>     7.9708     0.0000   384.0000 </r>
       <r>     8.0584     0.7148   384.0152 </r>
       <r>     8.1460     4.2147   384.2095 </r>
       <r>     8.2337    11.0037   384.8414 </r>
       <r>     8.3213    30.2104   386.8565 </r>
       <r>     8.4089    20.2040   389.1948 </r>
       <r>     8.4966    36.2046   392.3093 </r>
       <r>     8.5842    22.4310   394.5167 </r>
       <r>     8.6718    24.0041   396.5760 </r>
       <r>     8.7594    23.2005   398.6193 </r>
       <r>     8.8471    29.7394   401.0343 </r>
       <r>     8.9347    29.6337   403.5872 </r>
       <r>     9.0223    25.1828   406.0136 </r>
       <r>     9.1100    29.2751   408.3955 </r>
       <r>     9.1976    29.0726   410.9725 </r>
       <r>     9.2852    34.5608   413.6890 </r>
       <r>     9.3728    31.2659   416.5986 </r>
       <r>     9.4605    26.5551   419.1201 </r>
       <r>     9.5481    45.6695   422.2162 </r>
       <r>     9.6357    23.9686   425.7415 </r>
       <r>     9.7234    12.7854   427.2841 </r>
       <r>     9.8110    55.8470   431.1858 </r>
       <r>     9.8986    37.6554   434.2719 </r>
       <r>     9.9862    18.4661   436.6917 </r>
       <r>    10.0739    24.6985   438.7935 </r>
       <r>    10.1615    35.8615   441.3578 </r>
       <r>    10.2491    24.4906   443.6235 </r>
       <r>    10.3367    24.8580   445.9900 </r>
       <r>    10.4244    34.8357   448.5553 </r>
       <r>    10.5120    22.5401   450.9428 </r>
       <r>    10.5996    17.1675   452.8363 </r>
       <r>    10.6873    21.9291   454.4336 </r>
       <r>    10.7749    26.4520   456.7325 </r>
       <r>    10.8625    20.5308   458.7422 </r>
       <r>    10.9501    20.3493   460.5223 </r>
       <r>    11.0378    23.3774   462.3580 </r>
       <r>    11.1254    28.0965   464.6645 </r>
       <r>    11.2130    27.9884   467.1412 </r>
       <r>    11.3007    25.1246   469.4911 </r>
       <r>    11.3883    21.0274   471.4833 </r>
       <r>    11.4759    19.7566   473.2668 </r>
       <r>    11.5635    21.1317   475.0295 </r>
       <r>    11.6512    24.2651   477.0065 </r>
       <r>    11.7388    23.4018   479.1201 </r>
       <r>    11.8264    20.0703   481.0363 </r>
       <r>    11.9141    16.0476   482.6115 </r>
       <r>    12.0017    13.1176   483.8853 </r>
       <r>    12.0893    12.3371   484.9683 </r>
       <r>    12.1769    15.6541   486.1482 </r>
       <r>    12.2646    12.8758   487.3894 </r>
       <r>    12.3522    26.7666   489.0584 </r>
       <r>    12.4398    44.0955   491.9052 </r>
       <r>    12.5275    37.6881   495.4153 </r>
       <r>    12.6151    30.3017   497.9722 </r>
       <r>    12.7027    19.8715   500.6863 </r>
       <r>    12.7903    48.7142   503.1767 </r>
       <r>    12.8780    19.1708   505.8368 </r>
       <r>    12.9656     0.0000   506.0000 </r>
       <r>    13.0532     0.0000   506.0000 </r>
       <r>    13.1408     0.0000   506.0000 </r>
       <r>    13.2285     0.0000   506.0000 </r>
       <r>    13.3161     0.0000   506.0000 </r>
       <r>    13.4037     0.0000   506.0000 </r>
       <r>    13.4914     0.0000   506.0000 </r>
       <r>    13.5790     0.0000   506.0000 </r>
       <r>    13.6666     0.0000   506.0000 </r>
       <r>    13.7542     0.0000   506.0000 </r>
       <r>    13.8419     0.0000   506.0000 </r>
       <r>    13.9295     0.0000   506.0000 </r>
       <r>    14.0171     0.0000   506.0000 </r>
       <r>    14.1048     0.0000   506.0000 </r>
      </set>
     </set>
    </array>
   </total>
  </dos>
 </calculation>
 <structure name="finalpos" >
  <crystal>
   <varray name="basis" >
    <v>       9.23908700       0.05018900       4.19114300 </v>
    <v>       2.67674700       9.09957000       4.28584700 </v>
    <v>      -0.05144400       0.07203300      10.40806300 </v>
   </varray>
   <i name="volume">    873.53217688 </i>
   <varray name="rec_basis" >
    <v>       0.10806720      -0.03214562       0.00075662 </v>
    <v>      -0.00025239       0.11032978      -0.00076483 </v>
    <v>      -0.04341282      -0.03248728       0.09608962 </v>
   </varray>
  </crystal>
  <varray name="positions" >
   <v>       0.15928164       0.40327782       0.40454692 </v>
   <v>       0.15896699       0.40379115       0.90373507 </v>
   <v>       0.15758431       0.90435871       0.40425724 </v>
   <v>       0.15807167       0.90296672       0.90396567 </v>
   <v>       0.65838214       0.40316018       0.40480867 </v>
   <v>       0.65825924       0.40402037       0.90362973 </v>
   <v>       0.65745501       0.90407698       0.40420789 </v>
   <v>       0.65850987       0.90392500       0.90338888 </v>
   <v>       0.40108509       0.40155134       0.15783894 </v>
   <v>       0.40180935       0.40165527       0.65877962 </v>
   <v>       0.40183449       0.90129698       0.15881024 </v>
   <v>       0.40222406       0.90175261       0.65985014 </v>
   <v>       0.90079530       0.40286898       0.15805466 </v>
   <v>       0.90055443       0.40224542       0.65712497 </v>
   <v>       0.90123202       0.90158811       0.15843850 </v>
   <v>       0.90184055       0.90259775       0.65814097 </v>
   <v>       0.40211137       0.15769020       0.40147020 </v>
   <v>       0.40187787       0.15779987       0.90191247 </v>
   <v>       0.40163666       0.65755177       0.40214473 </v>
   <v>       0.40247391       0.65848072       0.90130880 </v>
   <v>       0.90083113       0.15870557       0.40086908 </v>
   <v>       0.90135134       0.15929425       0.90086820 </v>
   <v>       0.90026886       0.65760701       0.40134845 </v>
   <v>       0.90167749       0.65878710       0.90127738 </v>
   <v>       0.34195100       0.09626054       0.09660371 </v>
   <v>       0.34148163       0.09617881       0.59644364 </v>
   <v>       0.34196143       0.59685857       0.09575545 </v>
   <v>       0.34109252       0.59696213       0.59680919 </v>
   <v>       0.84160834       0.09636907       0.09579844 </v>
   <v>       0.84152123       0.09788224       0.59598902 </v>
   <v>       0.84152565       0.59772673       0.09577317 </v>
   <v>       0.84213026       0.59746850       0.59678617 </v>
   <v>       0.09847243       0.09730740       0.34338060 </v>
   <v>       0.09899955       0.09702150       0.84329659 </v>
   <v>       0.09866223       0.59727416       0.34284816 </v>
   <v>       0.09943216       0.59729098       0.84380423 </v>
   <v>       0.59962765       0.09700487       0.34417264 </v>
   <v>       0.59913323       0.09666127       0.84414612 </v>
   <v>       0.60003152       0.59633901       0.34339056 </v>
   <v>       0.59973583       0.59646074       0.84328278 </v>
   <v>       0.09919026       0.34315208       0.09769553 </v>
   <v>       0.09840631       0.34328195       0.59768650 </v>
   <v>       0.09988071       0.84327023       0.09755632 </v>
   <v>       0.09845543       0.84450212       0.59761222 </v>
   <v>       0.59896801       0.34388637       0.09786171 </v>
   <v>       0.59932964       0.34314114       0.59840579 </v>
   <v>       0.59882980       0.84343279       0.09699517 </v>
   <v>       0.59959698       0.84367598       0.59755921 </v>
   <v>       0.49496020       0.49675786       0.33777650 </v>
   <v>       0.49401955       0.49775339       0.83773090 </v>
   <v>       0.49460007       0.99827899       0.33686507 </v>
   <v>       0.49459273       0.99877210       0.83731743 </v>
   <v>       0.99449129       0.49727400       0.33800149 </v>
   <v>       0.99476543       0.49734020       0.83757107 </v>
   <v>       0.99380834       0.99845344       0.33711532 </v>
   <v>       0.99277146       0.99773464       0.83859079 </v>
   <v>       0.49478521       0.33664963       0.49845972 </v>
   <v>       0.49506871       0.33641045       0.99805787 </v>
   <v>       0.49339050       0.83821753       0.49803741 </v>
   <v>       0.49433825       0.83732381       0.99797734 </v>
   <v>       0.99463007       0.33777227       0.49734035 </v>
   <v>       0.99465456       0.33725614       0.99825163 </v>
   <v>       0.99310806       0.83891906       0.49795632 </v>
   <v>       0.99431565       0.83702592       0.99885103 </v>
   <v>       0.17147003       0.00273856       0.00170126 </v>
   <v>       0.17064095       0.00349486       0.50336546 </v>
   <v>       0.17144788       0.50211157       0.00315781 </v>
   <v>       0.17154103       0.50300962       0.50270248 </v>
   <v>       0.67051083       0.00361603       0.00243093 </v>
   <v>       0.67057106       0.00323145       0.50429751 </v>
   <v>       0.67180961       0.50297675       0.00276540 </v>
   <v>       0.67073965       0.50279451       0.50350715 </v>
   <v>       0.00429733       0.00297969       0.16371177 </v>
   <v>       0.00427708       0.00401586       0.66436568 </v>
   <v>       0.00426369       0.50242820       0.16510818 </v>
   <v>       0.00416831       0.50319757       0.66424240 </v>
   <v>       0.50435206       0.00252305       0.16430723 </v>
   <v>       0.50464767       0.00313058       0.66464353 </v>
   <v>       0.50367600       0.50283126       0.16469896 </v>
   <v>       0.50451458       0.50357293       0.66445211 </v>
   <v>       0.00499155       0.16442266       0.00210150 </v>
   <v>       0.00411484       0.16521293       0.50182311 </v>
   <v>       0.00480896       0.66422064       0.00284643 </v>
   <v>       0.00413619       0.66525304       0.50182658 </v>
   <v>       0.50402341       0.16391981       0.00318242 </v>
   <v>       0.50402639       0.16373478       0.50357073 </v>
   <v>       0.50465870       0.66429671       0.00234444 </v>
   <v>       0.50398046       0.66503493       0.50214906 </v>
   <v>       0.24414188       0.24970221       0.24935582 </v>
   <v>       0.24546266       0.24998493       0.74852994 </v>
   <v>       0.24449813       0.75075014       0.24949280 </v>
   <v>       0.24549833       0.74894179       0.74921743 </v>
   <v>       0.74408290       0.24919247       0.24985857 </v>
   <v>       0.74577749       0.24854910       0.74872835 </v>
   <v>       0.74539673       0.74912532       0.24897726 </v>
   <v>       0.74481278       0.74972257       0.74918018 </v>
   <v>       0.34091776       0.49743568       0.49800558 </v>
   <v>       0.34078206       0.49763721       0.99713662 </v>
   <v>       0.34009816       0.99769111       0.49831980 </v>
   <v>       0.34023927       0.99760458       0.99733108 </v>
   <v>       0.83965096       0.49773737       0.49861357 </v>
   <v>       0.84051727       0.49836611       0.99799109 </v>
   <v>       0.83964455       0.99816850       0.49849715 </v>
   <v>       0.83962227       0.99846257       0.99726793 </v>
   <v>       0.30468877       0.30866342       0.30865519 </v>
   <v>       0.30547690       0.30877605       0.80864662 </v>
   <v>       0.30455196       0.80848503       0.31004619 </v>
   <v>       0.30545248       0.80806586       0.80907133 </v>
   <v>       0.80447053       0.30874957       0.30844714 </v>
   <v>       0.80391311       0.30961598       0.80809239 </v>
   <v>       0.80401097       0.80915788       0.30900062 </v>
   <v>       0.80481582       0.80928453       0.80861726 </v>
   <v>       0.19069152       0.18607368       0.18762412 </v>
   <v>       0.19047662       0.18720158       0.68756393 </v>
   <v>       0.19160045       0.68672491       0.18723226 </v>
   <v>       0.19036712       0.68693551       0.68779702 </v>
   <v>       0.69041260       0.18712425       0.18730641 </v>
   <v>       0.69051850       0.18644152       0.68736397 </v>
   <v>       0.69101008       0.68736121       0.18675791 </v>
   <v>       0.69020072       0.68739752       0.68750454 </v>
  </varray>
  <varray name="velocities" >
   <v>       0.00002045      -0.00004229      -0.00001813 </v>
   <v>       0.00000084      -0.00004097       0.00002057 </v>
   <v>      -0.00001019      -0.00004386       0.00003126 </v>
   <v>      -0.00001862       0.00000851      -0.00003044 </v>
   <v>      -0.00002276       0.00001336      -0.00000606 </v>
   <v>       0.00004192      -0.00002240      -0.00003362 </v>
   <v>       0.00002649      -0.00001770       0.00001918 </v>
   <v>       0.00002558      -0.00003320      -0.00005771 </v>
   <v>       0.00000685       0.00002138      -0.00004070 </v>
   <v>      -0.00003082       0.00001396      -0.00000677 </v>
   <v>       0.00005154       0.00004764      -0.00009895 </v>
   <v>      -0.00000623       0.00002797      -0.00005797 </v>
   <v>       0.00003832       0.00002283      -0.00006274 </v>
   <v>       0.00002150      -0.00000318      -0.00003260 </v>
   <v>       0.00002043       0.00004795      -0.00003683 </v>
   <v>       0.00001785       0.00002636      -0.00006563 </v>
   <v>       0.00002311      -0.00002399       0.00002400 </v>
   <v>       0.00002728      -0.00004547       0.00001111 </v>
   <v>       0.00002205      -0.00004671      -0.00000741 </v>
   <v>       0.00001579      -0.00006607       0.00000945 </v>
   <v>       0.00002152      -0.00000959      -0.00000180 </v>
   <v>       0.00001958      -0.00002653       0.00000733 </v>
   <v>       0.00000389      -0.00006562       0.00003712 </v>
   <v>       0.00001398       0.00000845       0.00000278 </v>
   <v>      -0.00001655      -0.00000389       0.00001892 </v>
   <v>       0.00002676       0.00001222      -0.00000723 </v>
   <v>      -0.00004057       0.00001448       0.00003644 </v>
   <v>       0.00003970      -0.00000781      -0.00003811 </v>
   <v>       0.00002095       0.00003574      -0.00000752 </v>
   <v>       0.00000980      -0.00000205       0.00002413 </v>
   <v>       0.00002967      -0.00000452       0.00005381 </v>
   <v>       0.00002251      -0.00001341      -0.00003570 </v>
   <v>      -0.00002891      -0.00001644       0.00001955 </v>
   <v>      -0.00002212      -0.00002905       0.00001225 </v>
   <v>      -0.00000673      -0.00000698       0.00001823 </v>
   <v>      -0.00002217      -0.00000855       0.00002096 </v>
   <v>      -0.00001820       0.00000016       0.00000489 </v>
   <v>      -0.00005324      -0.00003736       0.00004771 </v>
   <v>      -0.00003603      -0.00000164       0.00002191 </v>
   <v>      -0.00006646      -0.00001725       0.00004587 </v>
   <v>      -0.00006547       0.00003919       0.00001672 </v>
   <v>      -0.00003117       0.00000779      -0.00001772 </v>
   <v>      -0.00001584      -0.00001589       0.00004341 </v>
   <v>      -0.00006187       0.00005788      -0.00003691 </v>
   <v>      -0.00000365       0.00000084      -0.00004107 </v>
   <v>       0.00000829      -0.00000418      -0.00002717 </v>
   <v>      -0.00002131       0.00004726      -0.00003305 </v>
   <v>      -0.00003811      -0.00000443       0.00000303 </v>
   <v>       0.00001472      -0.00006350      -0.00001707 </v>
   <v>      -0.00000508      -0.00001990      -0.00001100 </v>
   <v>       0.00006478      -0.00000799      -0.00006191 </v>
   <v>      -0.00001179       0.00002161      -0.00000362 </v>
   <v>      -0.00001047      -0.00004357      -0.00001342 </v>
   <v>       0.00001137      -0.00001728      -0.00001174 </v>
   <v>       0.00003994      -0.00001429       0.00000134 </v>
   <v>       0.00000783      -0.00001943       0.00000324 </v>
   <v>       0.00002601       0.00000438       0.00001724 </v>
   <v>       0.00000745       0.00001028      -0.00003768 </v>
   <v>       0.00003656      -0.00001126      -0.00003510 </v>
   <v>      -0.00002205       0.00000711      -0.00002553 </v>
   <v>       0.00001854       0.00001142       0.00001821 </v>
   <v>      -0.00000159      -0.00002195      -0.00000465 </v>
   <v>       0.00000176       0.00000372      -0.00002146 </v>
   <v>      -0.00000588       0.00001190       0.00002436 </v>
   <v>      -0.00001203      -0.00000633      -0.00001360 </v>
   <v>       0.00003109      -0.00003084       0.00001838 </v>
   <v>      -0.00002433       0.00000973      -0.00001549 </v>
   <v>      -0.00004843      -0.00004427       0.00002280 </v>
   <v>      -0.00001069      -0.00001202      -0.00001225 </v>
   <v>      -0.00000637       0.00001850      -0.00001267 </v>
   <v>      -0.00000869       0.00000689      -0.00004319 </v>
   <v>      -0.00001324      -0.00000516      -0.00002076 </v>
   <v>      -0.00003713       0.00000172      -0.00000476 </v>
   <v>      -0.00001049      -0.00000063       0.00000483 </v>
   <v>       0.00001405      -0.00000504      -0.00000064 </v>
   <v>      -0.00003357      -0.00000298       0.00003359 </v>
   <v>       0.00001495       0.00000691       0.00001359 </v>
   <v>       0.00002006       0.00002582      -0.00004254 </v>
   <v>       0.00000862       0.00001486      -0.00001342 </v>
   <v>       0.00001940      -0.00000782       0.00001166 </v>
   <v>       0.00000113       0.00002166       0.00000409 </v>
   <v>       0.00000524      -0.00005933       0.00001130 </v>
   <v>       0.00001189      -0.00002935       0.00002438 </v>
   <v>      -0.00002451      -0.00003228       0.00002163 </v>
   <v>       0.00003127       0.00002901      -0.00001698 </v>
   <v>      -0.00003027      -0.00002714       0.00004876 </v>
   <v>      -0.00000636       0.00002935      -0.00004078 </v>
   <v>      -0.00001967       0.00000626       0.00003319 </v>
   <v>      -0.00004111       0.00003377       0.00006101 </v>
   <v>       0.00006216       0.00004859      -0.00000323 </v>
   <v>      -0.00000448       0.00003548       0.00004249 </v>
   <v>       0.00002845       0.00001393       0.00000698 </v>
   <v>       0.00002027       0.00006361       0.00003054 </v>
   <v>       0.00004078      -0.00001722       0.00003493 </v>
   <v>      -0.00003090       0.00009331       0.00001772 </v>
   <v>       0.00001220       0.00005493       0.00001246 </v>
   <v>      -0.00003006      -0.00001207       0.00003102 </v>
   <v>       0.00002180       0.00000171       0.00001882 </v>
   <v>      -0.00005390       0.00000391       0.00001574 </v>
   <v>       0.00000314       0.00002503      -0.00002289 </v>
   <v>       0.00002895      -0.00002205       0.00000211 </v>
   <v>      -0.00005237       0.00002857       0.00000827 </v>
   <v>      -0.00000425       0.00000085      -0.00000774 </v>
   <v>       0.00004856      -0.00004303       0.00003891 </v>
   <v>      -0.00000250       0.00001282      -0.00003262 </v>
   <v>       0.00000881       0.00002024      -0.00005967 </v>
   <v>       0.00000832      -0.00002550       0.00001998 </v>
   <v>       0.00001962      -0.00004591      -0.00003529 </v>
   <v>       0.00006015      -0.00006244      -0.00000715 </v>
   <v>       0.00001265      -0.00000603      -0.00002276 </v>
   <v>       0.00004811      -0.00005939      -0.00002774 </v>
   <v>       0.00001252      -0.00001114       0.00000623 </v>
   <v>      -0.00003497       0.00003617       0.00003772 </v>
   <v>      -0.00001126       0.00002698       0.00005799 </v>
   <v>      -0.00003766       0.00008651       0.00004962 </v>
   <v>      -0.00000840      -0.00002826       0.00003980 </v>
   <v>      -0.00002071       0.00007194       0.00005353 </v>
   <v>      -0.00001354       0.00005789      -0.00001642 </v>
   <v>      -0.00002734       0.00001862       0.00004249 </v>
   <v>      -0.00003960       0.00003427       0.00000445 </v>
  </varray>
 </structure>
</modeling>
