unknown system                          
            1
     9.239087    0.050189    4.191143
     2.676747    9.099570    4.285847
    -0.051444    0.072033   10.408063
   B    C 
    96    24
Direct configuration=     1
   0.15792300  0.40375800  0.40375800
   0.15792300  0.40375800  0.90375800
   0.15792300  0.90375800  0.40375800
   0.15792300  0.90375800  0.90375800
   0.65792300  0.40375800  0.40375800
   0.65792300  0.40375800  0.90375800
   0.65792300  0.90375800  0.40375800
   0.65792300  0.90375800  0.90375800
   0.40163200  0.40233800  0.15722000
   0.40163200  0.40233800  0.65722000
   0.40163200  0.90233800  0.15722000
   0.40163200  0.90233800  0.65722000
   0.90163200  0.40233800  0.15722000
   0.90163200  0.40233800  0.65722000
   0.90163200  0.90233800  0.15722000
   0.90163200  0.90233800  0.65722000
   0.40163200  0.15722000  0.40233800
   0.40163200  0.15722000  0.90233800
   0.40163200  0.65722000  0.40233800
   0.40163200  0.65722000  0.90233800
   0.90163200  0.15722000  0.40233800
   0.90163200  0.15722000  0.90233800
   0.90163200  0.65722000  0.40233800
   0.90163200  0.65722000  0.90233800
   0.34136600  0.09666500  0.09666500
   0.34136600  0.09666500  0.59666500
   0.34136600  0.59666500  0.09666500
   0.34136600  0.59666500  0.59666500
   0.84136600  0.09666500  0.09666500
   0.84136600  0.09666500  0.59666500
   0.84136600  0.59666500  0.09666500
   0.84136600  0.59666500  0.59666500
   0.09870000  0.09683600  0.34371100
   0.09870000  0.09683600  0.84371100
   0.09870000  0.59683600  0.34371100
   0.09870000  0.59683600  0.84371100
   0.59870000  0.09683600  0.34371100
   0.59870000  0.09683600  0.84371100
   0.59870000  0.59683600  0.34371100
   0.59870000  0.59683600  0.84371100
   0.09870000  0.34371100  0.09683600
   0.09870000  0.34371100  0.59683600
   0.09870000  0.84371100  0.09683600
   0.09870000  0.84371100  0.59683600
   0.59870000  0.34371100  0.09683600
   0.59870000  0.34371100  0.59683600
   0.59870000  0.84371100  0.09683600
   0.59870000  0.84371100  0.59683600
   0.49444700  0.49739900  0.33679800
   0.49444700  0.49739900  0.83679800
   0.49444700  0.99739900  0.33679800
   0.49444700  0.99739900  0.83679800
   0.99444700  0.49739900  0.33679800
   0.99444700  0.49739900  0.83679800
   0.99444700  0.99739900  0.33679800
   0.99444700  0.99739900  0.83679800
   0.49444700  0.33679800  0.49739900
   0.49444700  0.33679800  0.99739900
   0.49444700  0.83679800  0.49739900
   0.49444700  0.83679800  0.99739900
   0.99444700  0.33679800  0.49739900
   0.99444700  0.33679800  0.99739900
   0.99444700  0.83679800  0.49739900
   0.99444700  0.83679800  0.99739900
   0.17079500  0.00295000  0.00295000
   0.17079500  0.00295000  0.50295000
   0.17079500  0.50295000  0.00295000
   0.17079500  0.50295000  0.50295000
   0.67079500  0.00295000  0.00295000
   0.67079500  0.00295000  0.50295000
   0.67079500  0.50295000  0.00295000
   0.67079500  0.50295000  0.50295000
   0.00347500  0.00275500  0.16436200
   0.00347500  0.00275500  0.66436200
   0.00347500  0.50275500  0.16436200
   0.00347500  0.50275500  0.66436200
   0.50347500  0.00275500  0.16436200
   0.50347500  0.00275500  0.66436200
   0.50347500  0.50275500  0.16436200
   0.50347500  0.50275500  0.66436200
   0.00347500  0.16436200  0.00275500
   0.00347500  0.16436200  0.50275500
   0.00347500  0.66436200  0.00275500
   0.00347500  0.66436200  0.50275500
   0.50347500  0.16436200  0.00275500
   0.50347500  0.16436200  0.50275500
   0.50347500  0.66436200  0.00275500
   0.50347500  0.66436200  0.50275500
   0.24799500  0.24900900  0.24900900
   0.24799500  0.24900900  0.74900900
   0.24799500  0.74900900  0.24900900
   0.24799500  0.74900900  0.74900900
   0.74799500  0.24900900  0.24900900
   0.74799500  0.24900900  0.74900900
   0.74799500  0.74900900  0.24900900
   0.74799500  0.74900900  0.74900900
   0.33833600  0.49792800  0.49792800
   0.33833600  0.49792800  0.99792800
   0.33833600  0.99792800  0.49792800
   0.33833600  0.99792800  0.99792800
   0.83833600  0.49792800  0.49792800
   0.83833600  0.49792800  0.99792800
   0.83833600  0.99792800  0.49792800
   0.83833600  0.99792800  0.99792800
   0.30608800  0.30943700  0.30943700
   0.30608800  0.30943700  0.80943700
   0.30608800  0.80943700  0.30943700
   0.30608800  0.80943700  0.80943700
   0.80608800  0.30943700  0.30943700
   0.80608800  0.30943700  0.80943700
   0.80608800  0.80943700  0.30943700
   0.80608800  0.80943700  0.80943700
   0.19098900  0.18883500  0.18883500
   0.19098900  0.18883500  0.68883500
   0.19098900  0.68883500  0.18883500
   0.19098900  0.68883500  0.68883500
   0.69098900  0.18883500  0.18883500
   0.69098900  0.18883500  0.68883500
   0.69098900  0.68883500  0.18883500
   0.69098900  0.68883500  0.68883500
Direct configuration=     2
   0.15785722  0.40382143  0.40373658
   0.15790729  0.40378567  0.90374165
   0.15793196  0.90378762  0.40372453
   0.15795475  0.90378130  0.90375275
   0.65795109  0.40380771  0.40367277
   0.65792571  0.40381803  0.90376970
   0.65797127  0.90371740  0.40375214
   0.65788683  0.90377726  0.90382156
   0.40168144  0.40233006  0.15726524
   0.40160549  0.40237897  0.65716931
   0.40160813  0.90228102  0.15726251
   0.40155797  0.90236700  0.65717728
   0.90160832  0.40227416  0.15721164
   0.90171027  0.40229830  0.65725874
   0.90161397  0.90231271  0.15723479
   0.90161564  0.90228714  0.65719725
   0.40158498  0.15727424  0.40233734
   0.40160710  0.15722776  0.90232674
   0.40162128  0.65725756  0.40233394
   0.40163065  0.65721076  0.90238687
   0.90165175  0.15718835  0.40236748
   0.90165847  0.15720325  0.90229686
   0.90172167  0.65724836  0.40225423
   0.90163098  0.65717776  0.90238820
   0.34137871  0.09669916  0.09665522
   0.34133673  0.09671257  0.59667578
   0.34139544  0.59663530  0.09668539
   0.34136816  0.59668353  0.59662701
   0.84137827  0.09666992  0.09668350
   0.84135554  0.09668294  0.59663226
   0.84136843  0.59657862  0.09666379
   0.84134728  0.59668025  0.59667189
   0.09868978  0.09687042  0.34369178
   0.09869387  0.09691080  0.84370814
   0.09868813  0.59688646  0.34369907
   0.09872384  0.59684381  0.84367395
   0.59865745  0.09682192  0.34369518
   0.59874553  0.09683547  0.84367560
   0.59866804  0.59690931  0.34372509
   0.59874521  0.59683588  0.84369765
   0.09871928  0.34371510  0.09684042
   0.09873844  0.34369128  0.59682232
   0.09867675  0.84374812  0.09679707
   0.09877061  0.84364764  0.59690053
   0.59868215  0.34366930  0.09684243
   0.59867165  0.34374625  0.59681331
   0.59875879  0.84367551  0.09688782
   0.59867909  0.84369768  0.59686197
   0.49441335  0.49741138  0.33682010
   0.49445198  0.49740936  0.83682750
   0.49442817  0.99737197  0.33684080
   0.49442476  0.99741832  0.83675375
   0.99442190  0.49748839  0.33680152
   0.99446777  0.49738322  0.83680007
   0.99447442  0.99741877  0.33676262
   0.99447973  0.99740669  0.83675050
   0.49440529  0.33680359  0.49741349
   0.49443058  0.33681453  0.99737470
   0.49448464  0.83677737  0.49738659
   0.49447733  0.83674026  0.99745051
   0.99442472  0.33678318  0.49741953
   0.99438716  0.33682640  0.99737626
   0.99442786  0.83678996  0.49741000
   0.99442380  0.83681561  0.99736193
   0.17072173  0.00294715  0.00299521
   0.17074458  0.00296931  0.50292514
   0.17082592  0.50297423  0.00290757
   0.17082613  0.50292847  0.50292900
   0.67081969  0.00297048  0.00297177
   0.67076749  0.00299493  0.50292530
   0.67083336  0.50289620  0.00294352
   0.67081018  0.50299315  0.50294437
   0.00344236  0.00270147  0.16442476
   0.00349067  0.00276027  0.66431800
   0.00350160  0.50274047  0.16434924
   0.00345841  0.50278616  0.66432893
   0.50344916  0.00275267  0.16435167
   0.50353122  0.00273171  0.66432335
   0.50349558  0.50273404  0.16433221
   0.50351796  0.50268559  0.66435842
   0.00350553  0.16431081  0.00275145
   0.00345365  0.16442102  0.50275401
   0.00345945  0.66440518  0.00270122
   0.00350811  0.66435917  0.50279867
   0.50346821  0.16431480  0.00278235
   0.50347133  0.16438290  0.50277948
   0.50343045  0.66431630  0.00277282
   0.50344891  0.66433212  0.50281307
   0.24806947  0.24898661  0.24900518
   0.24796842  0.24897865  0.74904290
   0.24803793  0.74898411  0.24902344
   0.24800258  0.74903875  0.74901811
   0.74802236  0.24901045  0.24899720
   0.74798949  0.24906727  0.74902654
   0.74801561  0.74898007  0.24901581
   0.74802888  0.74901032  0.74901332
   0.33827690  0.49798328  0.49797805
   0.33829650  0.49794973  0.99797336
   0.33833782  0.99792365  0.49796474
   0.33827996  0.99792513  0.99794552
   0.83835319  0.49795606  0.49789190
   0.83836080  0.49791919  0.99791780
   0.83834696  0.99791110  0.49790906
   0.83834698  0.99784341  0.99795860
   0.30607444  0.30943966  0.30943382
   0.30607301  0.30938848  0.80948655
   0.30607226  0.80943161  0.30939344
   0.30608902  0.80942468  0.80948319
   0.80608407  0.30944012  0.30943904
   0.80609622  0.30945062  0.80943163
   0.80611174  0.80944072  0.30941708
   0.80610051  0.80942394  0.80944253
   0.19097179  0.18884364  0.18882572
   0.19096791  0.18884650  0.68879623
   0.19095305  0.68882097  0.18878952
   0.19102010  0.68886592  0.68880150
   0.69098330  0.18877737  0.18882829
   0.69093851  0.18882879  0.68889793
   0.69101184  0.68879693  0.18884990
   0.69099931  0.68880928  0.68889479
Direct configuration=     3
   0.15779214  0.40388415  0.40371476
   0.15789204  0.40381278  0.90372503
   0.15794117  0.90381673  0.40369089
   0.15798663  0.90380430  0.90374713
   0.65797919  0.40385704  0.40358763
   0.65792889  0.40387732  0.90378095
   0.65801957  0.90367667  0.40374603
   0.65785136  0.90379594  0.90388439
   0.40172872  0.40231886  0.15731311
   0.40157700  0.40241640  0.65712177
   0.40158261  0.90222121  0.15730731
   0.40148234  0.90239269  0.65713741
   0.90158305  0.40220734  0.15720594
   0.90178633  0.40225563  0.65730006
   0.90159412  0.90228439  0.15725212
   0.90159756  0.90223332  0.65717725
   0.40153629  0.15733090  0.40233365
   0.40158051  0.15723803  0.90231240
   0.40160866  0.65729778  0.40232665
   0.40162740  0.65720430  0.90243231
   0.90166941  0.15715975  0.40239349
   0.90168289  0.15718922  0.90225274
   0.90180902  0.65727949  0.40216768
   0.90162803  0.65713855  0.90243481
   0.34139001  0.09673391  0.09664637
   0.34130645  0.09676077  0.59668729
   0.34142331  0.59660658  0.09670667
   0.34136897  0.59670295  0.59659006
   0.84138928  0.09667552  0.09670271
   0.84134369  0.09670166  0.59660071
   0.84136952  0.59649339  0.09666356
   0.84132750  0.59669623  0.59667948
   0.09868123  0.09690719  0.34367165
   0.09868933  0.09698765  0.84370440
   0.09867802  0.59693923  0.34368618
   0.09874924  0.59685408  0.84363608
   0.59861664  0.09681032  0.34367846
   0.59879221  0.09683726  0.84363968
   0.59863779  0.59698472  0.34373827
   0.59879173  0.59683814  0.84368365
   0.09874003  0.34371836  0.09684720
   0.09877828  0.34367087  0.59681099
   0.09865520  0.84378397  0.09676080
   0.09884228  0.84358401  0.59696691
   0.59866610  0.34362668  0.09685127
   0.59864514  0.34378033  0.59679313
   0.59881880  0.84363936  0.09694187
   0.59865988  0.84368345  0.59689032
   0.49437915  0.49742411  0.33684375
   0.49445627  0.49742001  0.83685855
   0.49440867  0.99734536  0.33688513
   0.49440192  0.99743779  0.83671162
   0.99439614  0.49757782  0.33680664
   0.99448784  0.49736787  0.83680371
   0.99450107  0.99743872  0.33672925
   0.99451171  0.99741472  0.83670484
   0.49436309  0.33681107  0.49742819
   0.49441347  0.33683270  0.99735087
   0.49452148  0.83675846  0.49737465
   0.49450683  0.83668444  0.99750221
   0.99440177  0.33677046  0.49744033
   0.99432694  0.33685632  0.99735394
   0.99440824  0.83678374  0.49742131
   0.99439993  0.83683505  0.99732523
   0.17064380  0.00294568  0.00304169
   0.17068956  0.00298991  0.50290175
   0.17085159  0.50299979  0.00286669
   0.17085203  0.50290848  0.50290947
   0.67083917  0.00299217  0.00299488
   0.67073511  0.00304105  0.50290202
   0.67086656  0.50284396  0.00293844
   0.67082026  0.50303753  0.50294008
   0.00341119  0.00264869  0.16448671
   0.00350765  0.00276604  0.66427371
   0.00352948  0.50272657  0.16433603
   0.00344335  0.50281776  0.66429562
   0.50342476  0.00275083  0.16434118
   0.50358853  0.00270910  0.66428436
   0.50351751  0.50271368  0.16430225
   0.50356211  0.50261702  0.66435451
   0.00353721  0.16425951  0.00274850
   0.00343372  0.16447918  0.50275358
   0.00344534  0.66444760  0.00264820
   0.00354247  0.66435585  0.50284271
   0.50346285  0.16426745  0.00281010
   0.50346901  0.16440321  0.50280439
   0.50338757  0.66427035  0.00279115
   0.50342434  0.66430197  0.50287149
   0.24814473  0.24896724  0.24900427
   0.24794305  0.24895158  0.74907995
   0.24808146  0.74896197  0.24904050
   0.24801130  0.74907158  0.74903043
   0.74805061  0.24901484  0.24898844
   0.74798489  0.24912840  0.74904698
   0.74803744  0.74895437  0.24902582
   0.74806383  0.74901483  0.74902090
   0.33822348  0.49803752  0.49802704
   0.33826276  0.49797052  0.99801769
   0.33834479  0.99791855  0.49800051
   0.33822961  0.99792141  0.99796219
   0.83837579  0.49798323  0.49785512
   0.83839083  0.49790949  0.99790683
   0.83836324  0.99789342  0.49788937
   0.83836345  0.99775835  0.99798824
   0.30605900  0.30944138  0.30942956
   0.30605605  0.30933909  0.80953460
   0.30605470  0.80942520  0.30934914
   0.30608813  0.80941126  0.80952811
   0.80607828  0.30944195  0.30943993
   0.80610259  0.30946318  0.80942527
   0.80613355  0.80944315  0.30939603
   0.80611096  0.80940975  0.80944710
   0.19095492  0.18884693  0.18881106
   0.19094703  0.18885258  0.68875218
   0.19091759  0.68880182  0.18873886
   0.19105141  0.68889114  0.68876274
   0.69097778  0.18871461  0.18881628
   0.69088854  0.18881736  0.68895504
   0.69103488  0.68875340  0.18885927
   0.69100973  0.68877826  0.68894882
Direct configuration=     4
   0.15772809  0.40394582  0.40369255
   0.15787736  0.40383912  0.90370828
   0.15795047  0.90384514  0.40365733
   0.15801832  0.90382710  0.90374111
   0.65800691  0.40390599  0.40350311
   0.65793264  0.40393547  0.90379168
   0.65806757  0.90363604  0.40373985
   0.65781689  0.90381383  0.90394615
   0.40177359  0.40230434  0.15736348
   0.40154643  0.40244996  0.65707779
   0.40155573  0.90215897  0.15735386
   0.40140544  0.90241502  0.65710053
   0.90155656  0.40213782  0.15720283
   0.90185991  0.40221029  0.65734370
   0.90157257  0.90225326  0.15727171
   0.90157804  0.90217683  0.65715997
   0.40148621  0.15738959  0.40232713
   0.40155253  0.15725049  0.90229516
   0.40159418  0.65734056  0.40231612
   0.40162233  0.65720061  0.90247406
   0.90168478  0.15713447  0.40241582
   0.90170510  0.15717784  0.90220597
   0.90189358  0.65731344  0.40207894
   0.90162319  0.65710260  0.90247748
   0.34139979  0.09676890  0.09663850
   0.34127546  0.09680934  0.59669940
   0.34144929  0.59657892  0.09672890
   0.34136835  0.59672325  0.59655439
   0.84139913  0.09668162  0.09672240
   0.84133033  0.09672103  0.59657068
   0.84136928  0.59640956  0.09666445
   0.84130689  0.59671279  0.59668755
   0.09867438  0.09694619  0.34365064
   0.09868637  0.09706608  0.84369979
   0.09866988  0.59699416  0.34367232
   0.09877612  0.59686684  0.84359745
   0.59857764  0.09680120  0.34366094
   0.59883951  0.09684118  0.84360371
   0.59860932  0.59706183  0.34375056
   0.59883920  0.59684273  0.84366927
   0.09876203  0.34372086  0.09685619
   0.09881933  0.34365003  0.59680186
   0.09863543  0.84381818  0.09672743
   0.09891441  0.84352080  0.59703444
   0.59865205  0.34358315  0.09686246
   0.59862071  0.34381298  0.59677543
   0.59887964  0.84360279  0.09699797
   0.59864247  0.84366828  0.59692095
   0.49434456  0.49743722  0.33686879
   0.49445986  0.49743095  0.83689091
   0.49438850  0.99731926  0.33693075
   0.49437859  0.99745715  0.83667206
   0.99436978  0.49766693  0.33681319
   0.99450719  0.49735307  0.83680868
   0.99452685  0.99745870  0.33669816
   0.99454292  0.99742311  0.83666113
   0.49432066  0.33682060  0.49744295
   0.49439567  0.33685242  0.99732765
   0.49455739  0.83674120  0.49736335
   0.49453537  0.83663074  0.99755394
   0.99437819  0.33676022  0.49746129
   0.99426670  0.33688746  0.99733214
   0.99438841  0.83677944  0.49743286
   0.99437548  0.83685634  0.99728895
   0.17056162  0.00294561  0.00308928
   0.17063038  0.00301171  0.50287991
   0.17087179  0.50302663  0.00282754
   0.17087254  0.50289018  0.50289148
   0.67085329  0.00301490  0.00301929
   0.67069806  0.00308812  0.50288018
   0.67089453  0.50279344  0.00293481
   0.67082520  0.50308295  0.50293706
   0.00338153  0.00259685  0.16454753
   0.00352578  0.00277226  0.66422928
   0.00355850  0.50271338  0.16432237
   0.00342995  0.50284963  0.66426231
   0.50340184  0.00274933  0.16433085
   0.50364654  0.00268726  0.66424518
   0.50354080  0.50269389  0.16427249
   0.50360719  0.50254959  0.66435046
   0.00356973  0.16420848  0.00274620
   0.00341525  0.16453612  0.50275368
   0.00343274  0.66448892  0.00259618
   0.00357792  0.66435204  0.50288690
   0.50345899  0.16422029  0.00283802
   0.50346798  0.16442283  0.50282951
   0.50334675  0.66422439  0.00280993
   0.50340141  0.66427178  0.50293001
   0.24822036  0.24895060  0.24900587
   0.24791879  0.24892773  0.74911997
   0.24812491  0.74894195  0.24905944
   0.24802106  0.74910727  0.74904587
   0.74807935  0.24902178  0.24898243
   0.74798091  0.24919198  0.74906996
   0.74806047  0.74893184  0.24903894
   0.74809966  0.74902243  0.74903168
   0.33817590  0.49809056  0.49807474
   0.33823504  0.49799027  0.99806084
   0.33835663  0.99791282  0.49803517
   0.33818516  0.99791678  0.99797800
   0.83840376  0.49800950  0.49781784
   0.83842585  0.49789883  0.99789513
   0.83838473  0.99787502  0.49786898
   0.83838548  0.99767316  0.99801677
   0.30604170  0.30944252  0.30942440
   0.30603715  0.30928927  0.80958068
   0.30603543  0.80941795  0.30930474
   0.30608542  0.80939687  0.80957164
   0.80607072  0.30944237  0.30943976
   0.80610715  0.30947486  0.80941816
   0.80615334  0.80944420  0.30937398
   0.80611922  0.80939459  0.80945102
   0.19093872  0.18884509  0.18879123
   0.19092651  0.18885335  0.68870320
   0.19088310  0.68877808  0.18868344
   0.19108308  0.68891043  0.68871914
   0.69097258  0.18864724  0.18879930
   0.69083964  0.18880117  0.68900589
   0.69105822  0.68870450  0.18886311
   0.69102025  0.68874228  0.68899673
Direct configuration=     5
   0.15766538  0.40400613  0.40366993
   0.15786331  0.40386452  0.90369153
   0.15795973  0.90387271  0.40362408
   0.15804954  0.90384983  0.90373470
   0.65803387  0.40395454  0.40341972
   0.65793702  0.40399210  0.90380183
   0.65811493  0.90359579  0.40373373
   0.65778368  0.90383075  0.90400653
   0.40181584  0.40228650  0.15741614
   0.40151375  0.40247940  0.65703771
   0.40152780  0.90209475  0.15740164
   0.40132764  0.90243395  0.65706669
   0.90152922  0.40206589  0.15720216
   0.90193076  0.40216259  0.65738939
   0.90154947  0.90221956  0.15729327
   0.90155733  0.90211802  0.65714534
   0.40143503  0.15744990  0.40231804
   0.40152346  0.15726480  0.90227521
   0.40157791  0.65738575  0.40230239
   0.40161551  0.65719963  0.90251197
   0.90169774  0.15711274  0.40243427
   0.90172499  0.15716899  0.90215686
   0.90197497  0.65735016  0.40198856
   0.90161651  0.65707006  0.90251591
   0.34140801  0.09680378  0.09663163
   0.34124413  0.09685799  0.59671194
   0.34147318  0.59655235  0.09675205
   0.34136631  0.59674439  0.59652014
   0.84140793  0.09668798  0.09674234
   0.84131542  0.09674090  0.59654245
   0.84136774  0.59632735  0.09666652
   0.84128574  0.59672974  0.59669586
   0.09866925  0.09698731  0.34362880
   0.09868497  0.09714564  0.84369436
   0.09866386  0.59705106  0.34365750
   0.09880440  0.59688208  0.84355815
   0.59854055  0.09679454  0.34364270
   0.59888693  0.09684705  0.84356814
   0.59858268  0.59714025  0.34376203
   0.59888727  0.59684956  0.84365482
   0.09878512  0.34372272  0.09686723
   0.09886135  0.34362902  0.59679479
   0.09861745  0.84385043  0.09669710
   0.09898644  0.84345869  0.59710246
   0.59864018  0.34353870  0.09687593
   0.59859857  0.34384398  0.59676019
   0.59894088  0.84356607  0.09705589
   0.59862691  0.84365220  0.59695374
   0.49430971  0.49745074  0.33689501
   0.49446275  0.49744216  0.83692438
   0.49436766  0.99729377  0.33697745
   0.49435486  0.99747623  0.83663543
   0.99434287  0.49775540  0.33682101
   0.99452580  0.49733893  0.83681476
   0.99455168  0.99747858  0.33666958
   0.99457331  0.99743188  0.83661940
   0.49427822  0.33683232  0.49745764
   0.49437718  0.33687358  0.99730521
   0.49459227  0.83672552  0.49735283
   0.49456280  0.83657931  0.99760555
   0.99435400  0.33675282  0.49748233
   0.99420677  0.33691954  0.99731095
   0.99436861  0.83677711  0.49744460
   0.99435048  0.83687955  0.99725310
   0.17047562  0.00294694  0.00313786
   0.17056753  0.00303460  0.50285969
   0.17088640  0.50305468  0.00279029
   0.17088755  0.50287375  0.50287511
   0.67086196  0.00303849  0.00304498
   0.67065659  0.00313593  0.50285978
   0.67091723  0.50274481  0.00293268
   0.67082503  0.50312922  0.50293525
   0.00335343  0.00254612  0.16460694
   0.00354493  0.00277885  0.66418489
   0.00358851  0.50270095  0.16430832
   0.00341836  0.50288160  0.66422922
   0.50338042  0.00274806  0.16432102
   0.50370491  0.00266630  0.66420595
   0.50356540  0.50267469  0.16424326
   0.50365292  0.50248360  0.66434645
   0.00360282  0.16415811  0.00274460
   0.00339824  0.16459147  0.50275426
   0.00342169  0.66452885  0.00254539
   0.00361428  0.66434775  0.50293100
   0.50345667  0.16417366  0.00286591
   0.50346817  0.16444167  0.50285468
   0.50330828  0.66417865  0.00282907
   0.50338023  0.66424178  0.50298839
   0.24829584  0.24893633  0.24900951
   0.24789550  0.24890695  0.74916268
   0.24816759  0.74892341  0.24907952
   0.24803169  0.74914553  0.74906426
   0.74810817  0.24903083  0.24897883
   0.74797719  0.24925753  0.74909502
   0.74808458  0.74891230  0.24905496
   0.74813615  0.74903294  0.74904553
   0.33813429  0.49814225  0.49812091
   0.33821357  0.49800885  0.99810267
   0.33837297  0.99790654  0.49806858
   0.33814675  0.99791122  0.99799297
   0.83843703  0.49803483  0.49778020
   0.83846559  0.49788715  0.99788272
   0.83841124  0.99785595  0.49784793
   0.83841307  0.99758817  0.99804405
   0.30602258  0.30944343  0.30941853
   0.30601632  0.30923946  0.80962446
   0.30601458  0.80941011  0.30926080
   0.30608099  0.80938168  0.80961372
   0.80606149  0.30944129  0.30943866
   0.80611000  0.30948584  0.80941060
   0.80617112  0.80944382  0.30935104
   0.80612518  0.80937860  0.80945461
   0.19092348  0.18883839  0.18876647
   0.19090653  0.18884902  0.68864967
   0.19085005  0.68875028  0.18862370
   0.19111527  0.68892367  0.68867112
   0.69096783  0.18857578  0.18877770
   0.69079231  0.18878068  0.68905023
   0.69108202  0.68865040  0.18886151
   0.69103091  0.68870173  0.68903835
Direct configuration=     6
   0.15760434  0.40406475  0.40364695
   0.15784998  0.40388881  0.90367493
   0.15796882  0.90389931  0.40359138
   0.15808000  0.90387257  0.90372789
   0.65805970  0.40400268  0.40333797
   0.65794211  0.40404685  0.90381136
   0.65816127  0.90355616  0.40372784
   0.65775203  0.90384652  0.90406518
   0.40185526  0.40226536  0.15747088
   0.40147897  0.40250447  0.65700184
   0.40149914  0.90202901  0.15745010
   0.40124935  0.90244948  0.65703595
   0.90150143  0.40199187  0.15720379
   0.90199863  0.40211287  0.65743684
   0.90152499  0.90218356  0.15731648
   0.90153571  0.90205722  0.65713329
   0.40138307  0.15751139  0.40230664
   0.40149361  0.15728063  0.90225277
   0.40155992  0.65743317  0.40228553
   0.40160705  0.65720128  0.90254587
   0.90170817  0.15709476  0.40244869
   0.90174245  0.15716255  0.90210577
   0.90205278  0.65738960  0.40189712
   0.90160806  0.65704112  0.90254979
   0.34141462  0.09683818  0.09662578
   0.34121283  0.09690641  0.59672474
   0.34149476  0.59652692  0.09677609
   0.34136288  0.59676632  0.59648746
   0.84141581  0.09669438  0.09676229
   0.84129896  0.09676111  0.59651630
   0.84136496  0.59624701  0.09666983
   0.84126433  0.59674691  0.59670417
   0.09866584  0.09703036  0.34360616
   0.09868509  0.09722585  0.84368812
   0.09866009  0.59710972  0.34364172
   0.09883398  0.59689979  0.84351829
   0.59850544  0.09679033  0.34362382
   0.59893395  0.09685470  0.84353339
   0.59855795  0.59721956  0.34377267
   0.59893558  0.59685856  0.84364056
   0.09880907  0.34372402  0.09688016
   0.09890411  0.34360808  0.59678964
   0.09860132  0.84388039  0.09667001
   0.09905775  0.84339835  0.59717030
   0.59863065  0.34349338  0.09689157
   0.59857892  0.34387307  0.59674740
   0.59900212  0.84352945  0.09711537
   0.59861328  0.84363520  0.59698857
   0.49427477  0.49746470  0.33692221
   0.49446496  0.49745362  0.83695870
   0.49434619  0.99726897  0.33702494
   0.49433086  0.99749479  0.83660210
   0.99431547  0.49784288  0.33682992
   0.99454366  0.49732557  0.83682172
   0.99457548  0.99749820  0.33664375
   0.99460285  0.99744102  0.83657974
   0.49423602  0.33684633  0.49747211
   0.49435803  0.33689604  0.99728368
   0.49462600  0.83671136  0.49734324
   0.49458900  0.83653033  0.99765687
   0.99432926  0.33674855  0.49750337
   0.99414752  0.33695227  0.99729047
   0.99434909  0.83677681  0.49745649
   0.99432502  0.83690466  0.99721777
   0.17038635  0.00294965  0.00318726
   0.17050158  0.00305849  0.50284117
   0.17089531  0.50308387  0.00275509
   0.17089700  0.50285931  0.50286043
   0.67086514  0.00306274  0.00307186
   0.67061101  0.00318423  0.50284084
   0.67093467  0.50269827  0.00293205
   0.67081981  0.50317615  0.50293459
   0.00332695  0.00249671  0.16466463
   0.00356494  0.00278573  0.66414078
   0.00361935  0.50268934  0.16429393
   0.00340869  0.50291349  0.66419665
   0.50336054  0.00274690  0.16431203
   0.50376324  0.00264630  0.66416687
   0.50359127  0.50265607  0.16421493
   0.50369904  0.50241933  0.66434267
   0.00363617  0.16410879  0.00274371
   0.00338272  0.16464491  0.50275531
   0.00341221  0.66456713  0.00249602
   0.00365137  0.66434302  0.50297478
   0.50345591  0.16412795  0.00289355
   0.50346952  0.16445968  0.50287970
   0.50327248  0.66413342  0.00284851
   0.50336089  0.66421225  0.50304636
   0.24837061  0.24892403  0.24901468
   0.24787300  0.24888904  0.74920775
   0.24820878  0.74890571  0.24909996
   0.24804296  0.74918598  0.74908536
   0.74813657  0.24904149  0.24897724
   0.74797331  0.24932447  0.74912163
   0.74810959  0.74889551  0.24907362
   0.74817297  0.74904606  0.74906223
   0.33809874  0.49819238  0.49816534
   0.33819855  0.49802617  0.99814299
   0.33839344  0.99789982  0.49810060
   0.33811450  0.99790468  0.99800708
   0.83847547  0.49805920  0.49774239
   0.83850972  0.49787441  0.99786967
   0.83844255  0.99783628  0.49782631
   0.83844617  0.99750378  0.99806993
   0.30600172  0.30944447  0.30941217
   0.30599361  0.30919012  0.80966563
   0.30599228  0.80940189  0.30921791
   0.30607493  0.80936588  0.80965431
   0.80605072  0.30943869  0.30943675
   0.80611122  0.30949632  0.80940286
   0.80618686  0.80944199  0.30932741
   0.80612877  0.80936196  0.80945820
   0.19090955  0.18882717  0.18873711
   0.19088726  0.18883983  0.68859206
   0.19081889  0.68871900  0.18856014
   0.19114815  0.68893082  0.68861919
   0.69096367  0.18850083  0.18875189
   0.69074707  0.18875640  0.68908783
   0.69110642  0.68859136  0.18885461
   0.69104178  0.68865704  0.68907353
Direct configuration=     7
   0.15754527  0.40412136  0.40362364
   0.15783743  0.40391183  0.90365861
   0.15797757  0.90392480  0.40355947
   0.15810942  0.90389541  0.90372072
   0.65808403  0.40405039  0.40325838
   0.65794795  0.40409935  0.90382022
   0.65820625  0.90351744  0.40372234
   0.65772219  0.90386097  0.90412181
   0.40189171  0.40224099  0.15752746
   0.40144213  0.40252496  0.65697046
   0.40147007  0.90196222  0.15749869
   0.40117097  0.90246160  0.65700834
   0.90147358  0.40191612  0.15720753
   0.90206330  0.40206150  0.65748577
   0.90149930  0.90214555  0.15734102
   0.90151344  0.90199479  0.65712374
   0.40133066  0.15757363  0.40229319
   0.40146327  0.15729764  0.90222807
   0.40154034  0.65748260  0.40226561
   0.40159705  0.65720549  0.90257560
   0.90171596  0.15708069  0.40245894
   0.90175746  0.15715840  0.90205306
   0.90212666  0.65743167  0.40180522
   0.90159793  0.65701594  0.90257886
   0.34141960  0.09687174  0.09662092
   0.34118192  0.09695426  0.59673759
   0.34151384  0.59650268  0.09680098
   0.34135808  0.59678895  0.59645648
   0.84142290  0.09670056  0.09678202
   0.84128094  0.09678146  0.59649245
   0.84136101  0.59616878  0.09667443
   0.84124298  0.59676409  0.59671226
   0.09866417  0.09707519  0.34358276
   0.09868666  0.09730624  0.84368113
   0.09865870  0.59716992  0.34362496
   0.09886474  0.59691992  0.84347799
   0.59847239  0.09678853  0.34360436
   0.59898008  0.09686391  0.84349988
   0.59853517  0.59729934  0.34378251
   0.59898378  0.59686959  0.84362674
   0.09883370  0.34372484  0.09689483
   0.09894736  0.34358744  0.59678625
   0.09858708  0.84390771  0.09664632
   0.09912775  0.84334041  0.59723731
   0.59862359  0.34344725  0.09690930
   0.59856191  0.34390003  0.59673705
   0.59906292  0.84349318  0.09717614
   0.59860163  0.84361731  0.59702526
   0.49423992  0.49747911  0.33695017
   0.49446649  0.49746530  0.83699364
   0.49432412  0.99724499  0.33707298
   0.49430670  0.99751265  0.83657242
   0.99428766  0.49792905  0.33683971
   0.99456076  0.49731309  0.83682936
   0.99459817  0.99751744  0.33662088
   0.99463149  0.99745057  0.83654222
   0.49419431  0.33686272  0.49748626
   0.49433825  0.33691968  0.99726323
   0.49465848  0.83669865  0.49733475