 120 120   0   0
  0.7061052E+01  0.1004290E-08  0.1030330E-08  0.1030330E-08  0.5000000E-15
   1.0000000000000000E-004
  CAR 
 unknown system                          
     14.38426489    -12.17504060  301      5.37939827      1.00000000
    -12.175  0.0000E+00  0.0000E+00
    -12.087  0.0000E+00  0.0000E+00
    -11.998  0.0000E+00  0.0000E+00
    -11.909  0.0000E+00  0.0000E+00
    -11.821  0.0000E+00  0.0000E+00
    -11.732  0.0000E+00  0.0000E+00
    -11.644  0.0000E+00  0.0000E+00
    -11.555  0.0000E+00  0.0000E+00
    -11.467  0.0000E+00  0.0000E+00
    -11.378  0.0000E+00  0.0000E+00
    -11.290  0.0000E+00  0.0000E+00
    -11.201  0.0000E+00  0.0000E+00
    -11.113  0.0000E+00  0.0000E+00
    -11.024  0.0000E+00  0.0000E+00
    -10.936  0.5207E-03  0.5588E-05
    -10.847  0.7322E-02  0.2947E-03
    -10.759  0.2200E-01  0.1535E-02
    -10.670  0.1221E+00  0.8502E-02
    -10.581  0.1375E-01  0.1247E-01
    -10.493  0.3898E-02  0.1320E-01
    -10.404  0.7658E-01  0.1409E-01
    -10.316  0.1724E+00  0.3072E-01
    -10.227  0.1047E+00  0.4221E-01
    -10.139  0.2859E-01  0.5299E-01
    -10.050  0.0000E+00  0.5333E-01
     -9.962  0.0000E+00  0.5333E-01
     -9.873  0.0000E+00  0.5333E-01
     -9.785  0.0000E+00  0.5333E-01
     -9.696  0.0000E+00  0.5333E-01
     -9.608  0.0000E+00  0.5333E-01
     -9.519  0.0000E+00  0.5333E-01
     -9.431  0.0000E+00  0.5333E-01
     -9.342  0.0000E+00  0.5333E-01
     -9.254  0.0000E+00  0.5333E-01
     -9.165  0.0000E+00  0.5333E-01
     -9.076  0.0000E+00  0.5333E-01
     -8.988  0.0000E+00  0.5333E-01
     -8.899  0.1203E-02  0.5336E-01
     -8.811  0.1188E-01  0.5383E-01
     -8.722  0.3802E-01  0.5592E-01
     -8.634  0.1245E+00  0.6209E-01
     -8.545  0.1051E+00  0.7247E-01
     -8.457  0.5846E-01  0.7973E-01
     -8.368  0.4550E-01  0.8353E-01
     -8.280  0.1031E+00  0.9158E-01
     -8.191  0.9804E-01  0.9858E-01
     -8.103  0.4435E-01  0.1048E+00
     -8.014  0.2063E-02  0.1067E+00
     -7.926  0.2075E-01  0.1072E+00
     -7.837  0.6154E-01  0.1111E+00
     -7.748  0.5195E-01  0.1165E+00
     -7.660  0.2552E-01  0.1195E+00
     -7.571  0.7262E-01  0.1229E+00
     -7.483  0.1525E+00  0.1352E+00
     -7.394  0.4969E-01  0.1430E+00
     -7.306  0.1636E-01  0.1456E+00
     -7.217  0.8057E-02  0.1465E+00
     -7.129  0.6628E-01  0.1490E+00
     -7.040  0.9511E-01  0.1581E+00
     -6.952  0.2121E-01  0.1618E+00
     -6.863  0.3770E-01  0.1643E+00
     -6.775  0.5296E-01  0.1684E+00
     -6.686  0.8353E-01  0.1749E+00
     -6.598  0.7926E-01  0.1818E+00
     -6.509  0.1573E-01  0.1861E+00
     -6.421  0.3558E-01  0.1887E+00
     -6.332  0.4201E-01  0.1921E+00
     -6.243  0.5316E-01  0.1963E+00
     -6.155  0.6417E-01  0.2015E+00
     -6.066  0.5357E-01  0.2070E+00
     -5.978  0.3603E-01  0.2108E+00
     -5.889  0.9998E-02  0.2131E+00
     -5.801  0.0000E+00  0.2133E+00
     -5.712  0.2317E-01  0.2140E+00
     -5.624  0.8818E-01  0.2188E+00
     -5.535  0.4985E-01  0.2250E+00
     -5.447  0.3971E-01  0.2286E+00
     -5.358  0.8405E-01  0.2336E+00
     -5.270  0.1752E+00  0.2459E+00
     -5.181  0.1196E-01  0.2533E+00
     -5.093  0.6524E-01  0.2578E+00
     -5.004  0.1024E+00  0.2651E+00
     -4.915  0.1131E+00  0.2748E+00
     -4.827  0.3427E-01  0.2805E+00
     -4.738  0.1378E+00  0.2877E+00
     -4.650  0.3295E-01  0.2930E+00
     -4.561  0.4788E-01  0.2966E+00
     -4.473  0.4495E-01  0.3008E+00
     -4.384  0.6447E-01  0.3054E+00
     -4.296  0.6641E-01  0.3127E+00
     -4.207  0.2955E-01  0.3163E+00
     -4.119  0.1619E-01  0.3182E+00
     -4.030  0.8702E-02  0.3193E+00
     -3.942  0.3522E-02  0.3198E+00
     -3.853  0.6454E-03  0.3200E+00
     -3.765  0.0000E+00  0.3200E+00
     -3.676  0.1884E-02  0.3200E+00
     -3.588  0.2187E-01  0.3212E+00
     -3.499  0.3178E-01  0.3236E+00
     -3.410  0.4306E-01  0.3269E+00
     -3.322  0.4377E-01  0.3307E+00
     -3.233  0.4783E-01  0.3347E+00
     -3.145  0.5556E-01  0.3393E+00
     -3.056  0.6697E-01  0.3447E+00
     -2.968  0.9020E-01  0.3517E+00
     -2.879  0.6374E-01  0.3579E+00
     -2.791  0.4971E-01  0.3636E+00
     -2.702  0.7727E-01  0.3679E+00
     -2.614  0.8798E-01  0.3761E+00
     -2.525  0.7397E-01  0.3844E+00
     -2.437  0.5525E-01  0.3892E+00
     -2.348  0.1039E+00  0.3958E+00
     -2.260  0.2859E-01  0.4017E+00
     -2.171  0.1102E+00  0.4084E+00
     -2.083  0.8238E-01  0.4150E+00
     -1.994  0.1307E+00  0.4244E+00
     -1.905  0.1047E+00  0.4330E+00
     -1.817  0.7917E-01  0.4412E+00
     -1.728  0.1223E+00  0.4498E+00
     -1.640  0.1618E+00  0.4626E+00
     -1.551  0.1322E+00  0.4762E+00
     -1.463  0.8409E-01  0.4856E+00
     -1.374  0.8099E-01  0.4931E+00
     -1.286  0.6804E-01  0.4999E+00
     -1.197  0.3426E-01  0.5043E+00
     -1.109  0.1172E+00  0.5088E+00
     -1.020  0.6682E-01  0.5188E+00
     -0.932  0.2070E+00  0.5300E+00
     -0.843  0.1119E+00  0.5445E+00
     -0.755  0.6972E-01  0.5527E+00
     -0.666  0.7669E-01  0.5587E+00
     -0.577  0.1457E+00  0.5682E+00
     -0.489  0.1063E+00  0.5812E+00
     -0.400  0.7831E-01  0.5885E+00
     -0.312  0.7884E-01  0.5953E+00
     -0.223  0.9482E-01  0.6030E+00
     -0.135  0.8234E-01  0.6111E+00
     -0.046  0.6435E-01  0.6174E+00
      0.042  0.7891E-01  0.6267E+00
      0.131  0.9592E-01  0.6300E+00
      0.219  0.2242E+00  0.6474E+00
      0.308  0.1077E+00  0.6637E+00
      0.396  0.7942E-01  0.6710E+00
      0.485  0.1081E+00  0.6799E+00
      0.573  0.8594E-01  0.6873E+00
      0.662  0.1159E+00  0.6970E+00
      0.750  0.9728E-01  0.7066E+00
      0.839  0.7903E-01  0.7135E+00
      0.928  0.8899E-01  0.7212E+00
      1.016  0.1124E+00  0.7298E+00
      1.105  0.1839E+00  0.7435E+00
      1.193  0.1455E+00  0.7568E+00
      1.282  0.1447E+00  0.7694E+00
      1.370  0.1409E+00  0.7824E+00
      1.459  0.5017E-01  0.7907E+00
      1.547  0.1272E+00  0.7971E+00
      1.636  0.9772E-01  0.8072E+00
      1.724  0.1151E+00  0.8172E+00
      1.813  0.1542E+00  0.8313E+00
      1.901  0.1067E+00  0.8427E+00
      1.990  0.8967E-01  0.8515E+00
      2.078  0.2021E+00  0.8659E+00
      2.167  0.2865E+00  0.8834E+00
      2.256  0.1766E+00  0.8957E+00
      2.344  0.1734E+00  0.9085E+00
      2.433  0.5919E-01  0.9179E+00
      2.521  0.2412E+00  0.9289E+00
      2.610  0.2132E+00  0.9447E+00
      2.698  0.1653E+00  0.9591E+00
      2.787  0.1611E+00  0.9727E+00
      2.875  0.1285E+00  0.9857E+00
      2.964  0.1126E+00  0.1002E+01
      3.052  0.1196E+00  0.1009E+01
      3.141  0.2036E+00  0.1024E+01
      3.229  0.2145E+00  0.1043E+01
      3.318  0.1439E+00  0.1055E+01
      3.406  0.1754E+00  0.1068E+01
      3.495  0.1252E+00  0.1083E+01
      3.583  0.1134E+00  0.1093E+01
      3.672  0.9499E-01  0.1103E+01
      3.761  0.9594E-01  0.1112E+01
      3.849  0.1497E+00  0.1121E+01
      3.938  0.1848E+00  0.1138E+01
      4.026  0.1378E+00  0.1153E+01
      4.115  0.1144E+00  0.1166E+01
      4.203  0.1644E+00  0.1174E+01
      4.292  0.3070E+00  0.1191E+01
      4.380  0.9312E-01  0.1214E+01
      4.469  0.7968E-01  0.1222E+01
      4.557  0.1146E+00  0.1230E+01
      4.646  0.1363E+00  0.1241E+01
      4.734  0.1457E+00  0.1253E+01
      4.823  0.9910E-01  0.1263E+01
      4.911  0.7763E-01  0.1271E+01
      5.000  0.4106E-01  0.1277E+01
      5.089  0.1559E-01  0.1279E+01
      5.177  0.4066E-02  0.1280E+01
      5.266  0.1288E-02  0.1280E+01
      5.354  0.6416E-04  0.1280E+01
      5.443  0.0000E+00  0.1280E+01
      5.531  0.0000E+00  0.1280E+01
      5.620  0.0000E+00  0.1280E+01
      5.708  0.0000E+00  0.1280E+01
      5.797  0.0000E+00  0.1280E+01
      5.885  0.0000E+00  0.1280E+01
      5.974  0.0000E+00  0.1280E+01
      6.062  0.0000E+00  0.1280E+01
      6.151  0.0000E+00  0.1280E+01
      6.239  0.0000E+00  0.1280E+01
      6.328  0.0000E+00  0.1280E+01
      6.416  0.0000E+00  0.1280E+01
      6.505  0.0000E+00  0.1280E+01
      6.594  0.0000E+00  0.1280E+01
      6.682  0.0000E+00  0.1280E+01
      6.771  0.0000E+00  0.1280E+01
      6.859  0.0000E+00  0.1280E+01
      6.948  0.0000E+00  0.1280E+01
      7.036  0.0000E+00  0.1280E+01
      7.125  0.0000E+00  0.1280E+01
      7.213  0.0000E+00  0.1280E+01
      7.302  0.0000E+00  0.1280E+01
      7.390  0.0000E+00  0.1280E+01
      7.479  0.0000E+00  0.1280E+01
      7.567  0.0000E+00  0.1280E+01
      7.656  0.0000E+00  0.1280E+01
      7.744  0.0000E+00  0.1280E+01
      7.833  0.0000E+00  0.1280E+01
      7.922  0.0000E+00  0.1280E+01
      8.010  0.0000E+00  0.1280E+01
      8.099  0.0000E+00  0.1280E+01
      8.187  0.0000E+00  0.1280E+01
      8.276  0.1033E-03  0.1280E+01
      8.364  0.4550E-02  0.1280E+01
      8.453  0.1768E-01  0.1281E+01
      8.541  0.4365E-01  0.1284E+01
      8.630  0.1081E+00  0.1291E+01
      8.718  0.6137E-01  0.1299E+01
      8.807  0.1227E+00  0.1310E+01
      8.895  0.6700E-01  0.1317E+01
      8.984  0.5551E-01  0.1322E+01
      9.072  0.6769E-01  0.1327E+01
      9.161  0.1063E+00  0.1334E+01
      9.249  0.9407E-01  0.1343E+01
      9.338  0.9675E-01  0.1352E+01
      9.427  0.1142E+00  0.1361E+01
      9.515  0.8680E-01  0.1370E+01
      9.604  0.8586E-01  0.1378E+01
      9.692  0.8935E-01  0.1386E+01
      9.781  0.8801E-01  0.1393E+01
      9.869  0.1334E+00  0.1403E+01
      9.958  0.1373E+00  0.1416E+01
     10.046  0.5541E-01  0.1423E+01
     10.135  0.1551E+00  0.1436E+01
     10.223  0.9100E-01  0.1445E+01
     10.312  0.9156E-01  0.1453E+01
     10.400  0.1166E+00  0.1460E+01
     10.489  0.9613E-01  0.1467E+01
     10.577  0.7414E-01  0.1475E+01
     10.666  0.8965E-01  0.1482E+01
     10.754  0.1237E+00  0.1493E+01
     10.843  0.6036E-01  0.1500E+01
     10.932  0.6645E-01  0.1505E+01
     11.020  0.6376E-01  0.1511E+01
     11.109  0.8708E-01  0.1518E+01
     11.197  0.8644E-01  0.1526E+01
     11.286  0.6981E-01  0.1533E+01
     11.374  0.5474E-01  0.1538E+01
     11.463  0.8585E-01  0.1545E+01
     11.551  0.9054E-01  0.1552E+01
     11.640  0.8845E-01  0.1560E+01
     11.728  0.7630E-01  0.1568E+01
     11.817  0.6499E-01  0.1574E+01
     11.905  0.6128E-01  0.1579E+01
     11.994  0.6663E-01  0.1585E+01
     12.082  0.8498E-01  0.1592E+01
     12.171  0.8791E-01  0.1599E+01
     12.260  0.8364E-01  0.1607E+01
     12.348  0.6674E-01  0.1614E+01
     12.437  0.9208E-01  0.1620E+01
     12.525  0.1293E+00  0.1627E+01
     12.614  0.1809E+00  0.1641E+01
     12.702  0.4464E-01  0.1650E+01
     12.791  0.5897E-01  0.1654E+01
     12.879  0.1141E+00  0.1663E+01
     12.968  0.8723E-01  0.1672E+01
     13.056  0.2445E-01  0.1680E+01
     13.145  0.1854E+00  0.1682E+01
     13.233  0.6275E-02  0.1687E+01
     13.322  0.0000E+00  0.1687E+01
     13.410  0.0000E+00  0.1687E+01
     13.499  0.0000E+00  0.1687E+01
     13.587  0.0000E+00  0.1687E+01
     13.676  0.0000E+00  0.1687E+01
     13.765  0.0000E+00  0.1687E+01
     13.853  0.0000E+00  0.1687E+01
     13.942  0.0000E+00  0.1687E+01
     14.030  0.0000E+00  0.1687E+01
     14.119  0.0000E+00  0.1687E+01
     14.207  0.0000E+00  0.1687E+01
     14.296  0.0000E+00  0.1687E+01
     14.384  0.0000E+00  0.1687E+01
