[1649867821.160495] [c1000a-s23:77583:0]    ucp_context.c:1075 UCX  ERROR exceeded transports/devices limit (78 requested, up to 64 are supported)
 running on    1 total cores
 distrk:  each k-point on    1 cores,    1 groups
 distr:  one band on    1 cores,    1 groups
 OpenACC runtime initialized ...    1 GPUs detected
 vasp.6.2.0 18Jan21 (build Feb 25 2021 07:51:20) complex                         
 POSCAR found type information on POSCAR B C 
 POSCAR found :  2 types and     120 ions
 scaLAPACK will be used selectively (only on CPU)
 LDA part: xc-table for Pade appr. of Perdew
 -----------------------------------------------------------------------------
|                                                                             |
|           W    W    AA    RRRRR   N    N  II  N    N   GGGG   !!!           |
|           W    W   A  A   R    R  NN   N  II  NN   N  G    G  !!!           |
|           W    W  A    A  R    R  N N  N  II  N N  N  G       !!!           |
|           W WW W  AAAAAA  RRRRR   N  N N  II  N  N N  G  GGG   !            |
|           WW  WW  A    A  R   R   N   NN  II  N   NN  G    G                |
|           W    W  A    A  R    R  N    N  II  N    N   GGGG   !!!           |
|                                                                             |
|     The requested file  could not be found or opened for reading            |
|     k-point information. Automatic k-point generation is used as a          |
|     fallback, which may lead to unwanted results.                           |
|                                                                             |
 -----------------------------------------------------------------------------

 POSCAR, INCAR and KPOINTS ok, starting setup
 FFT: planning ...
 WAVECAR not read
 entering main loop
       N       E                     dE             d eps       ncg     rms          rms(c)
DAV:   1     0.156705711685E+04    0.15671E+04   -0.22045E+05  3036   0.180E+03
DAV:   2    -0.782893177255E+03   -0.23500E+04   -0.22103E+04  3674   0.320E+02
DAV:   3    -0.930861342026E+03   -0.14797E+03   -0.14552E+03  3648   0.711E+01
DAV:   4    -0.934537947530E+03   -0.36766E+01   -0.36531E+01  3624   0.114E+01
DAV:   5    -0.934637601191E+03   -0.99654E-01   -0.99458E-01  3584   0.176E+00    0.420E+01
RMM:   6    -0.886337702303E+03    0.48300E+02   -0.67008E+01  3036   0.121E+01    0.226E+01
RMM:   7    -0.877357729620E+03    0.89800E+01   -0.58102E+01  3036   0.117E+01    0.809E+00
RMM:   8    -0.876946144510E+03    0.41159E+00   -0.73378E+00  3036   0.457E+00    0.252E+00
RMM:   9    -0.876676238747E+03    0.26991E+00   -0.20148E+00  3036   0.225E+00    0.967E-01
RMM:  10    -0.876672583397E+03    0.36553E-02   -0.25873E-01  3065   0.943E-01    0.646E-01
RMM:  11    -0.876664057870E+03    0.85255E-02   -0.67001E-02  3036   0.452E-01    0.135E-01
RMM:  12    -0.876665525583E+03   -0.14677E-02   -0.94693E-03  3074   0.179E-01    0.153E-01
RMM:  13    -0.876664995775E+03    0.52981E-03   -0.26487E-03  3142   0.782E-02    0.647E-02
RMM:  14    -0.876665003553E+03   -0.77785E-05   -0.17522E-03  3042   0.640E-02    0.287E-02
RMM:  15    -0.876664985874E+03    0.17679E-04   -0.15018E-04  3060   0.255E-02    0.163E-02
RMM:  16    -0.876664984523E+03    0.13513E-05   -0.51842E-05  3030   0.115E-02    0.453E-03
RMM:  17    -0.876664986029E+03   -0.15060E-05   -0.78235E-06  2641   0.493E-03    0.346E-03
RMM:  18    -0.876664987365E+03   -0.13365E-05   -0.41593E-06  2419   0.322E-03    0.706E-04
RMM:  19    -0.876664987425E+03   -0.59662E-07   -0.80653E-07  1884   0.158E-03
   1 F= -.87666499E+03 E0= -.87666499E+03  d E =-.876665E+03
 curvature:   0.00 expect dE= 0.000E+00 dE for cont linesearch  0.000E+00
 trial: gam= 0.00000 g(F)=  0.470E+00 g(S)=  0.220E-01 ort = 0.000E+00 (trialstep = 0.100E+01)
 search vector abs. value=  0.492E+00
 bond charge predicted
       N       E                     dE             d eps       ncg     rms          rms(c)
DAV:   1    -0.876522246656E+03    0.14274E+00   -0.47737E+01  3368   0.145E+01    0.230E+00
RMM:   2    -0.876467584004E+03    0.54663E-01   -0.10117E+00  3036   0.204E+00    0.121E+00
RMM:   3    -0.876438103050E+03    0.29481E-01   -0.21402E-01  3036   0.854E-01    0.584E-01
RMM:   4    -0.876438204145E+03   -0.10109E-03   -0.29687E-02  3053   0.352E-01    0.346E-01
RMM:   5    -0.876438366016E+03   -0.16187E-03   -0.73168E-03  3052   0.164E-01    0.110E-01
RMM:   6    -0.876438451263E+03   -0.85247E-04   -0.18502E-03  3112   0.778E-02    0.522E-02
RMM:   7    -0.876438484533E+03   -0.33270E-04   -0.35837E-04  3117   0.347E-02    0.152E-02
RMM:   8    -0.876438489481E+03   -0.49477E-05   -0.71859E-05  3083   0.158E-02    0.557E-03
RMM:   9    -0.876438491156E+03   -0.16750E-05   -0.18345E-05  2987   0.773E-03    0.190E-03
RMM:  10    -0.876438491432E+03   -0.27597E-06   -0.35799E-06  2263   0.349E-03
   2 F= -.87643849E+03 E0= -.87643849E+03  d E =0.226496E+00
 trial-energy change:    0.226496  1 .order    0.202740   -0.492470    0.897951
 step:   0.3315(harm=  0.3542)  dis= 0.00409  next Energy=  -876.745742 (dE=-0.808E-01)
 bond charge predicted
       N       E                     dE             d eps       ncg     rms          rms(c)
DAV:   1    -0.876787872859E+03   -0.34938E+00   -0.21242E+01  3224   0.961E+00    0.138E+00
RMM:   2    -0.876758120979E+03    0.29752E-01   -0.41512E-01  3036   0.132E+00    0.795E-01
RMM:   3    -0.876745072492E+03    0.13048E-01   -0.10589E-01  3036   0.584E-01    0.250E-01
RMM:   4    -0.876745446703E+03   -0.37421E-03   -0.12377E-02  3045   0.235E-01    0.152E-01
RMM:   5    -0.876745578089E+03   -0.13139E-03   -0.33540E-03  3042   0.112E-01    0.467E-02
RMM:   6    -0.876745610668E+03   -0.32578E-04   -0.69877E-04  3105   0.496E-02    0.292E-02
RMM:   7    -0.876745622578E+03   -0.11911E-04   -0.16792E-04  3095   0.235E-02    0.755E-03
RMM:   8    -0.876745623456E+03   -0.87784E-06   -0.32442E-05  3063   0.105E-02    0.542E-03
RMM:   9    -0.876745624354E+03   -0.89817E-06   -0.85022E-06  2758   0.527E-03
   3 F= -.87674562E+03 E0= -.87674562E+03  d E =-.806369E-01
 curvature:  -0.18 expect dE=-0.233E-01 dE for cont linesearch -0.323E-06
 trial: gam= 0.26908 g(F)=  0.115E+00 g(S)=  0.170E-01 ort =-0.948E-03 (trialstep = 0.866E+00)
 search vector abs. value=  0.167E+00
 bond charge predicted
       N       E                     dE             d eps       ncg     rms          rms(c)
DAV:   1    -0.876750974471E+03   -0.53510E-02   -0.73964E+00  3152   0.581E+00    0.865E-01
RMM:   2    -0.876751920700E+03   -0.94623E-03   -0.15904E-01  3036   0.840E-01    0.531E-01
RMM:   3    -0.876748585746E+03    0.33350E-02   -0.35682E-02  3036   0.345E-01    0.158E-01
RMM:   4    -0.876748912904E+03   -0.32716E-03   -0.51031E-03  3071   0.142E-01    0.929E-02
RMM:   5    -0.876748941739E+03   -0.28835E-04   -0.11161E-03  3085   0.643E-02    0.200E-02
RMM:   6    -0.876748953864E+03   -0.12125E-04   -0.22625E-04  3105   0.275E-02    0.157E-02
RMM:   7    -0.876748957199E+03   -0.33351E-05   -0.50824E-05  3083   0.130E-02    0.317E-03
RMM:   8    -0.876748957894E+03   -0.69443E-06   -0.10537E-05  2836   0.588E-03    0.288E-03
RMM:   9    -0.876748957986E+03   -0.92359E-07   -0.25294E-06  2058   0.283E-03
   4 F= -.87674896E+03 E0= -.87674896E+03  d E =-.333363E-02
 trial-energy change:   -0.003334  1 .order   -0.004829   -0.113754    0.104096
 step:   0.4434(harm=  0.4523)  dis= 0.00368  next Energy=  -876.774538 (dE=-0.289E-01)
 bond charge predicted
       N       E                     dE             d eps       ncg     rms          rms(c)
DAV:   1    -0.876774971743E+03   -0.26014E-01   -0.17561E+00  3136   0.283E+00    0.426E-01
RMM:   2    -0.876775199870E+03   -0.22813E-03   -0.37389E-02  3036   0.407E-01    0.258E-01
RMM:   3    -0.876774448302E+03    0.75157E-03   -0.84256E-03  3036   0.168E-01    0.753E-02
RMM:   4    -0.876774528190E+03   -0.79888E-04   -0.11999E-03  3071   0.694E-02    0.429E-02
RMM:   5    -0.876774535970E+03   -0.77795E-05   -0.25934E-04  3085   0.311E-02    0.939E-03
RMM:   6    -0.876774539044E+03   -0.30743E-05   -0.51991E-05  3111   0.132E-02    0.708E-03
RMM:   7    -0.876774540000E+03   -0.95583E-06   -0.11634E-05  2905   0.622E-03    0.154E-03
RMM:   8    -0.876774540184E+03   -0.18410E-06   -0.23495E-06  2058   0.280E-03
   5 F= -.87677454E+03 E0= -.87677454E+03  d E =-.289158E-01
 curvature:  -0.29 expect dE=-0.251E-01 dE for cont linesearch -0.926E-07
 trial: gam= 0.65519 g(F)=  0.688E-01 g(S)=  0.187E-01 ort = 0.232E-03 (trialstep = 0.782E+00)
 search vector abs. value=  0.159E+00
 bond charge predicted
       N       E                     dE             d eps       ncg     rms          rms(c)
DAV:   1    -0.876827110391E+03   -0.52570E-01   -0.47574E+00  3102   0.477E+00    0.626E-01
RMM:   2    -0.876820459446E+03    0.66509E-02   -0.68523E-02  3036   0.544E-01    0.340E-01
RMM:   3    -0.876818908341E+03    0.15511E-02   -0.20059E-02  3036   0.244E-01    0.116E-01
RMM:   4    -0.876818970105E+03   -0.61765E-04   -0.26535E-03  3091   0.977E-02    0.586E-02
RMM:   5    -0.876819010739E+03   -0.40634E-04   -0.70987E-04  3091   0.467E-02    0.163E-02
RMM:   6    -0.876819016877E+03   -0.61382E-05   -0.13098E-04  3096   0.204E-02    0.116E-02
RMM:   7    -0.876819017951E+03   -0.10744E-05   -0.27574E-05  3056   0.975E-03    0.242E-03
RMM:   8    -0.876819018416E+03   -0.46405E-06   -0.61461E-06  2514   0.426E-03
   6 F= -.87681902E+03 E0= -.87681902E+03  d E =-.444782E-01
 trial-energy change:   -0.044478  1 .order   -0.044442   -0.068515   -0.020369
 step:   1.1124(harm=  1.1124)  dis= 0.00553  next Energy=  -876.823291 (dE=-0.488E-01)
 bond charge predicted
       N       E                     dE             d eps       ncg     rms          rms(c)
DAV:   1    -0.876824787512E+03   -0.57696E-02   -0.85185E-01  3264   0.202E+00    0.266E-01
RMM:   2    -0.876823592837E+03    0.11947E-02   -0.12322E-02  3036   0.231E-01    0.144E-01
RMM:   3    -0.876823315427E+03    0.27741E-03   -0.36009E-03  3036   0.103E-01    0.497E-02
RMM:   4    -0.876823326554E+03   -0.11127E-04   -0.47558E-04  3090   0.414E-02    0.252E-02
RMM:   5    -0.876823333306E+03   -0.67526E-05   -0.12792E-04  3092   0.198E-02    0.699E-03
RMM:   6    -0.876823334322E+03   -0.10157E-05   -0.24144E-05  3086   0.869E-03    0.503E-03
RMM:   7    -0.876823334322E+03    0.27649E-09   -0.50573E-06  2421   0.416E-03
   7 F= -.87682333E+03 E0= -.87682333E+03  d E =-.487941E-01
 curvature:  -1.01 expect dE=-0.282E-01 dE for cont linesearch -0.725E-07
 trial: gam= 0.32610 g(F)=  0.152E-01 g(S)=  0.127E-01 ort =-0.107E-03 (trialstep = 0.848E+00)
 search vector abs. value=  0.447E-01
 bond charge predicted
       N       E                     dE             d eps       ncg     rms          rms(c)
DAV:   1    -0.876834373833E+03   -0.11040E-01   -0.20402E+00  3082   0.310E+00    0.349E-01
RMM:   2    -0.876833764183E+03    0.60965E-03   -0.29214E-02  3036   0.358E-01    0.204E-01
RMM:   3    -0.876833333664E+03    0.43052E-03   -0.66843E-03  3036   0.147E-01    0.763E-02
RMM:   4    -0.876833364838E+03   -0.31174E-04   -0.89782E-04  3095   0.571E-02    0.424E-02
RMM:   5    -0.876833374195E+03   -0.93566E-05   -0.21777E-04  3087   0.266E-02    0.117E-02
RMM:   6    -0.876833375801E+03   -0.16060E-05   -0.43915E-05  3076   0.117E-02    0.776E-03
RMM:   7    -0.876833376494E+03   -0.69306E-06   -0.10280E-05  2943   0.574E-03    0.162E-03
RMM:   8    -0.876833376526E+03   -0.32844E-07   -0.20298E-06  2013   0.249E-03
   8 F= -.87683338E+03 E0= -.87683338E+03  d E =-.100422E-01
 trial-energy change:   -0.010042  1 .order   -0.010042   -0.023600    0.003515
 step:   0.7380(harm=  0.7380)  dis= 0.00295  next Energy=  -876.833604 (dE=-0.103E-01)
 bond charge predicted
       N       E                     dE             d eps       ncg     rms          rms(c)
DAV:   1    -0.876833621263E+03   -0.24477E-03   -0.34259E-02  3288   0.402E-01    0.450E-02
RMM:   2    -0.876833612066E+03    0.91970E-05   -0.48914E-04  3036   0.464E-02    0.265E-02
RMM:   3    -0.876833605329E+03    0.67370E-05   -0.11157E-04  3036   0.190E-02    0.961E-03
RMM:   4    -0.876833605834E+03   -0.50522E-06   -0.14687E-05  3059   0.736E-03    0.532E-03
RMM:   5    -0.876833606052E+03   -0.21835E-06   -0.36985E-06  2199   0.344E-03
   9 F= -.87683361E+03 E0= -.87683361E+03  d E =-.102717E-01
 curvature:  -0.59 expect dE=-0.626E-02 dE for cont linesearch -0.933E-07
 trial: gam= 0.37558 g(F)=  0.971E-02 g(S)=  0.843E-03 ort = 0.839E-04 (trialstep = 0.826E+00)
 search vector abs. value=  0.169E-01
 bond charge predicted
       N       E                     dE             d eps       ncg     rms          rms(c)
DAV:   1    -0.876837710832E+03   -0.41050E-02   -0.58860E-01  3076   0.166E+00    0.212E-01
RMM:   2    -0.876837679333E+03    0.31499E-04   -0.92953E-03  3036   0.207E-01    0.128E-01
RMM:   3    -0.876837449954E+03    0.22938E-03   -0.24209E-03  3036   0.879E-02    0.300E-02
RMM:   4    -0.876837472503E+03   -0.22549E-04   -0.33553E-04  3072   0.354E-02    0.203E-02
RMM:   5    -0.876837475280E+03   -0.27767E-05   -0.93389E-05  3072   0.172E-02    0.559E-03
RMM:   6    -0.876837475228E+03    0.51404E-07   -0.18930E-05  3060   0.775E-03    0.489E-03
RMM:   7    -0.876837475343E+03   -0.11443E-06   -0.47882E-06  2430   0.377E-03
  10 F= -.87683748E+03 E0= -.87683748E+03  d E =-.386929E-02
 trial-energy change:   -0.003869  1 .order   -0.003862   -0.008745    0.001020
 step:   0.7396(harm=  0.7396)  dis= 0.00199  next Energy=  -876.837522 (dE=-0.392E-02)
 bond charge predicted
       N       E                     dE             d eps       ncg     rms          rms(c)
DAV:   1    -0.876837527037E+03   -0.51809E-04   -0.64074E-03  3304   0.173E-01    0.222E-02
RMM:   2    -0.876837525996E+03    0.10415E-05   -0.98617E-05  3036   0.213E-02    0.133E-02
RMM:   3    -0.876837523298E+03    0.26972E-05   -0.25785E-05  3036   0.905E-03    0.309E-03
RMM:   4    -0.876837523597E+03   -0.29877E-06   -0.35366E-06  2220   0.362E-03
  11 F= -.87683752E+03 E0= -.87683752E+03  d E =-.391755E-02
 curvature:  -0.59 expect dE=-0.579E-02 dE for cont linesearch -0.436E-07
 trial: gam= 0.92716 g(F)=  0.953E-02 g(S)=  0.252E-03 ort = 0.353E-04 (trialstep = 0.561E+00)
 search vector abs. value=  0.244E-01
 bond charge predicted
       N       E                     dE             d eps       ncg     rms          rms(c)
DAV:   1    -0.876838775458E+03   -0.12522E-02   -0.48417E-01  3087   0.150E+00    0.166E-01
RMM:   2    -0.876838851013E+03   -0.75555E-04   -0.75486E-03  3036   0.182E-01    0.104E-01
RMM:   3    -0.876838665496E+03    0.18552E-03   -0.16386E-03  3036   0.745E-02    0.300E-02
RMM:   4    -0.876838684021E+03   -0.18525E-04   -0.24522E-04  3065   0.302E-02    0.198E-02
RMM:   5    -0.876838686347E+03   -0.23261E-05   -0.57834E-05  3078   0.139E-02    0.435E-03
RMM:   6    -0.876838686590E+03   -0.24294E-06   -0.12728E-05  3072   0.629E-03    0.408E-03
RMM:   7    -0.876838686762E+03   -0.17177E-06   -0.31817E-06  2159   0.315E-03
  12 F= -.87683869E+03 E0= -.87683869E+03  d E =-.116316E-02
 trial-energy change:   -0.001163  1 .order   -0.001151   -0.005508    0.003207
 step:   0.3557(harm=  0.3546)  dis= 0.00097  next Energy=  -876.839273 (dE=-0.175E-02)
 bond charge predicted
       N       E                     dE             d eps       ncg     rms          rms(c)
DAV:   1    -0.876839287107E+03   -0.60052E-03   -0.64867E-02  3082   0.549E-01    0.610E-02
RMM:   2    -0.876839295613E+03   -0.85062E-05   -0.10110E-03  3036   0.665E-02    0.381E-02
RMM:   3    -0.876839270138E+03    0.25476E-04   -0.21787E-04  3036   0.272E-02    0.112E-02
RMM:   4    -0.876839272775E+03   -0.26367E-05   -0.32606E-05  3063   0.110E-02    0.742E-03
RMM:   5    -0.876839273327E+03   -0.55203E-06   -0.76629E-06  2921   0.505E-03
  13 F= -.87683927E+03 E0= -.87683927E+03  d E =-.174973E-02
 curvature:  -0.44 expect dE=-0.947E-03 dE for cont linesearch -0.187E-07
 trial: gam= 0.22331 g(F)=  0.197E-02 g(S)=  0.177E-03 ort = 0.322E-04 (trialstep = 0.520E+00)
 search vector abs. value=  0.338E-02
 bond charge predicted
       N       E                     dE             d eps       ncg     rms          rms(c)
DAV:   1    -0.876839911971E+03   -0.63920E-03   -0.49625E-02  3142   0.470E-01    0.600E-02
RMM:   2    -0.876839908455E+03    0.35160E-05   -0.86801E-04  3036   0.640E-02    0.358E-02
RMM:   3    -0.876839882315E+03    0.26140E-04   -0.19827E-04  3036   0.267E-02    0.670E-03
RMM:   4    -0.876839884322E+03   -0.20072E-05   -0.25082E-05  3069   0.100E-02    0.450E-03
RMM:   5    -0.876839884729E+03   -0.40720E-06   -0.54981E-06  2659   0.436E-03
  14 F= -.87683988E+03 E0= -.87683988E+03  d E =-.611403E-03
 trial-energy change:   -0.000611  1 .order   -0.000614   -0.001122   -0.000106
 step:   0.5741(harm=  0.5741)  dis= 0.00079  next Energy=  -876.839893 (dE=-0.619E-03)
 bond charge predicted
       N       E                     dE             d eps       ncg     rms          rms(c)
DAV:   1    -0.876839891077E+03   -0.67546E-05   -0.54343E-04  3488   0.491E-02    0.642E-03
RMM:   2    -0.876839891244E+03   -0.16738E-06   -0.10078E-05  3021   0.687E-03    0.387E-03
RMM:   3    -0.876839891102E+03    0.14270E-06   -0.22701E-06  1907   0.286E-03
  15 F= -.87683989E+03 E0= -.87683989E+03  d E =-.617775E-03
 curvature:  -0.45 expect dE=-0.179E-03 dE for cont linesearch -0.543E-08
 trial: gam= 0.17674 g(F)=  0.340E-03 g(S)=  0.572E-04 ort = 0.639E-05 (trialstep = 0.531E+00)
 search vector abs. value=  0.505E-03
 bond charge predicted
       N       E                     dE             d eps       ncg     rms          rms(c)
DAV:   1    -0.876840036927E+03   -0.14568E-03   -0.63149E-03  3113   0.169E-01    0.245E-02
RMM:   2    -0.876840033275E+03    0.36523E-05   -0.12572E-04  3036   0.236E-02    0.140E-02
RMM:   3    -0.876840030295E+03    0.29796E-05   -0.35601E-05  3036   0.108E-02    0.366E-03
RMM:   4    -0.876840030594E+03   -0.29892E-06   -0.40792E-06  2319   0.417E-03
  16 F= -.87684003E+03 E0= -.87684003E+03  d E =-.139493E-03
 trial-energy change:   -0.000139  1 .order   -0.000141   -0.000211   -0.000070
 step:   0.7948(harm=  0.7948)  dis= 0.00050  next Energy=  -876.840049 (dE=-0.158E-03)
 bond charge predicted
       N       E                     dE             d eps       ncg     rms          rms(c)
DAV:   1    -0.876840048177E+03   -0.17882E-04   -0.15657E-03  3288   0.841E-02    0.123E-02
RMM:   2    -0.876840047298E+03    0.87993E-06   -0.33720E-05  3036   0.122E-02    0.705E-03
RMM:   3    -0.876840046675E+03    0.62211E-06   -0.97119E-06  3036   0.561E-03
  17 F= -.87684005E+03 E0= -.87684005E+03  d E =-.155574E-03
 curvature:  -0.50 expect dE=-0.910E-04 dE for cont linesearch -0.782E-10
 trial: gam= 0.45961 g(F)=  0.169E-03 g(S)=  0.116E-04 ort =-0.280E-06 (trialstep = 0.584E+00)
 search vector abs. value=  0.287E-03
 bond charge predicted
       N       E                     dE             d eps       ncg     rms          rms(c)
DAV:   1    -0.876840120200E+03   -0.72902E-04   -0.48155E-03  3084   0.148E-01    0.188E-02
RMM:   2    -0.876840122414E+03   -0.22147E-05   -0.65615E-05  3036   0.173E-02    0.113E-02
RMM:   3    -0.876840122105E+03    0.30899E-06   -0.13733E-05  3036   0.694E-03    0.310E-03
RMM:   4    -0.876840122276E+03   -0.17055E-06   -0.21515E-06  2028   0.273E-03
  18 F= -.87684012E+03 E0= -.87684012E+03  d E =-.756006E-04
 trial-energy change:   -0.000076  1 .order   -0.000073   -0.000105   -0.000040
 step:   0.9374(harm=  0.9374)  dis= 0.00060  next Energy=  -876.840131 (dE=-0.846E-04)
 bond charge predicted
       N       E                     dE             d eps       ncg     rms          rms(c)
DAV:   1    -0.876840133201E+03   -0.11095E-04   -0.17699E-03  3240   0.896E-02    0.113E-02
RMM:   2    -0.876840134054E+03   -0.85312E-06   -0.25213E-05  3036   0.107E-02    0.675E-03
RMM:   3    -0.876840133936E+03    0.11839E-06   -0.50919E-06  2684   0.424E-03
  19 F= -.87684013E+03 E0= -.87684013E+03  d E =-.872602E-04
 curvature:  -0.75 expect dE=-0.130E-03 dE for cont linesearch -0.919E-07
 trial: gam= 1.00603 g(F)=  0.173E-03 g(S)=  0.362E-06 ort =-0.595E-05 (trialstep = 0.415E+00)
 search vector abs. value=  0.452E-03
 bond charge predicted
       N       E                     dE             d eps       ncg     rms          rms(c)
DAV:   1    -0.876840159581E+03   -0.25527E-04   -0.54666E-03  3156   0.157E-01    0.177E-02
RMM:   2    -0.876840159412E+03    0.16931E-06   -0.83173E-05  3036   0.187E-02    0.107E-02
RMM:   3    -0.876840157484E+03    0.19281E-05   -0.17226E-05  3036   0.778E-03    0.381E-03
RMM:   4    -0.876840157631E+03   -0.14673E-06   -0.24351E-06  2089   0.307E-03
  20 F= -.87684016E+03 E0= -.87684016E+03  d E =-.236950E-04
 trial-energy change:   -0.000024  1 .order   -0.000024   -0.000070    0.000021
 step:   0.3183(harm=  0.3183)  dis= 0.00018  next Energy=  -876.840161 (dE=-0.267E-04)
 bond charge predicted
       N       E                     dE             d eps       ncg     rms          rms(c)
DAV:   1    -0.876840160307E+03   -0.28229E-05   -0.29867E-04  3304   0.366E-02    0.411E-03
RMM:   2    -0.876840160322E+03   -0.15335E-07   -0.41434E-06  2240   0.417E-03
  21 F= -.87684016E+03 E0= -.87684016E+03  d E =-.263865E-04
 curvature:  -0.43 expect dE=-0.185E-04 dE for cont linesearch -0.182E-07
 trial: gam= 0.24119 g(F)=  0.414E-04 g(S)=  0.174E-05 ort =-0.438E-05 (trialstep = 0.396E+00)
 search vector abs. value=  0.673E-04
 bond charge predicted
       N       E                     dE             d eps       ncg     rms          rms(c)
DAV:   1    -0.876840170998E+03   -0.10691E-04   -0.50102E-04  3113   0.464E-02    0.614E-03
RMM:   2    -0.876840171049E+03   -0.51302E-07   -0.87778E-06  2959   0.620E-03
  22 F= -.87684017E+03 E0= -.87684017E+03  d E =-.107268E-04
 trial-energy change:   -0.000011  1 .order   -0.000011   -0.000017   -0.000005
 step:   0.5882(harm=  0.5882)  dis= 0.00013  next Energy=  -876.840173 (dE=-0.124E-04)
 bond charge predicted
       N       E                     dE             d eps       ncg     rms          rms(c)
DAV:   1    -0.876840171944E+03   -0.94661E-06   -0.11034E-04  3352   0.221E-02    0.356E-03
RMM:   2    -0.876840171941E+03    0.37617E-08   -0.18911E-06  1968   0.294E-03
  23 F= -.87684017E+03 E0= -.87684017E+03  d E =-.116184E-04
 curvature:  -0.47 expect dE=-0.352E-05 dE for cont linesearch -0.818E-09
 trial: gam= 0.16447 g(F)=  0.654E-05 g(S)=  0.937E-06 ort =-0.342E-06 (trialstep = 0.434E+00)
 search vector abs. value=  0.919E-05
 reached required accuracy - stopping structural energy minimisation
Warning: ieee_invalid is signaling
Warning: ieee_divide_by_zero is signaling
Warning: ieee_underflow is signaling
Warning: ieee_inexact is signaling
FORTRAN STOP
