 vasp.6.2.0 18Jan21 (build Feb 25 2021 07:51:20) complex                         
 executed on             LinuxPGI date 2022.04.13  12:37:03
 running on    1 total cores
 distrk:  each k-point on    1 cores,    1 groups
 distr:  one band on NCORE=   1 cores,    1 groups


--------------------------------------------------------------------------------------------------------


 INCAR:
   ALGO = Fast
   PREC = Accurate
   EDIFF = 1E-6
   ENCUT = 700
   ISMEAR = -5
   IBRION = 2
   ISIF = 4
   LREAL = Auto
   LWAVE = False
   LCHARGE = False
   NSW = 300
   SIGMA = 0.05

 POTCAR:    PAW_PBE B 06Sep2000                   
 POTCAR:    PAW_PBE C 08Apr2002                   
 POTCAR:    PAW_PBE B 06Sep2000                   
   VRHFIN =B: s2p1                                                                                  
   LEXCH  = PE                                                                                      
   EATOM  =    71.1703 eV,    5.2309 Ry                                                             
                                                                                                    
   TITEL  = PAW_PBE B 06Sep2000                                                                     
   LULTRA =        F    use ultrasoft PP ?                                                          
   IUNSCR =        1    unscreen: 0-lin 1-nonlin 2-no                                               
   RPACOR =    1.200    partial core radius                                                         
   POMASS =   10.811; ZVAL   =    3.000    mass and valenz                                          
   RCORE  =    1.700    outmost cutoff radius                                                       
   RWIGS  =    1.710; RWIGS  =    0.905    wigner-seitz radius (au A)                               
   ENMAX  =  318.614; ENMIN  =  238.960 eV                                                          
   ICORE  =        2    local potential                                                             
   LCOR   =        T    correct aug charges                                                         
   LPAW   =        T    paw PP                                                                      
   EAUG   =  535.514                                                                                
   DEXC   =    0.000                                                                                
   RMAX   =    1.732    core radius for proj-oper                                                   
   RAUG   =    1.300    factor for augmentation sphere                                              
   RDEP   =    1.757    radius for radial grids                                                     
   RDEPT  =    1.436    core radius for aug-charge                                                  
                                                                                                    
   Atomic configuration                                                                             
    4 entries                                                                                       
     n  l   j            E        occ.                                                              
     1  0  0.50      -180.5896   2.0000                                                             
     2  0  0.50        -9.4431   2.0000                                                             
     2  1  0.50        -3.6068   1.0000                                                             
     3  2  1.50        -4.0817   0.0000                                                             
   Description                                                                                      
     l       E           TYP  RCUT    TYP  RCUT                                                     
     0     -9.4430752     23  1.500                                                                 
     0      0.8675899     23  1.500                                                                 
     1     -3.6067955     23  1.700                                                                 
     1      6.1086146     23  1.700                                                                 
     2     -4.0817478      7  1.700                                                                 
  local pseudopotential read in
  partial core-charges read in
  partial kinetic energy density read in
  atomic valenz-charges read in
  non local Contribution for L=            0  read in
    real space projection operators read in
  non local Contribution for L=            0  read in
    real space projection operators read in
  non local Contribution for L=            1  read in
    real space projection operators read in
  non local Contribution for L=            1  read in
    real space projection operators read in
    PAW grid and wavefunctions read in
 
   number of l-projection  operators is LMAX  =            4
   number of lm-projection operators is LMMAX =            8
 
 POTCAR:    PAW_PBE C 08Apr2002                   
   VRHFIN =C: s2p2                                                                                  
   LEXCH  = PE                                                                                      
   EATOM  =   147.1560 eV,   10.8157 Ry                                                             
                                                                                                    
   TITEL  = PAW_PBE C 08Apr2002                                                                     
   LULTRA =        F    use ultrasoft PP ?                                                          
   IUNSCR =        1    unscreen: 0-lin 1-nonlin 2-no                                               
   RPACOR =    1.200    partial core radius                                                         
   POMASS =   12.011; ZVAL   =    4.000    mass and valenz                                          
   RCORE  =    1.500    outmost cutoff radius                                                       
   RWIGS  =    1.630; RWIGS  =    0.863    wigner-seitz radius (au A)                               
   ENMAX  =  400.000; ENMIN  =  300.000 eV                                                          
   ICORE  =        2    local potential                                                             
   LCOR   =        T    correct aug charges                                                         
   LPAW   =        T    paw PP                                                                      
   EAUG   =  644.873                                                                                
   DEXC   =    0.000                                                                                
   RMAX   =    1.529    core radius for proj-oper                                                   
   RAUG   =    1.300    factor for augmentation sphere                                              
   RDEP   =    1.501    radius for radial grids                                                     
   RDEPT  =    1.300    core radius for aug-charge                                                  
                                                                                                    
   Atomic configuration                                                                             
    4 entries                                                                                       
     n  l   j            E        occ.                                                              
     1  0  0.50      -273.3789   2.0000                                                             
     2  0  0.50       -13.7508   2.0000                                                             
     2  1  0.50        -5.2854   2.0000                                                             
     3  2  1.50        -5.4423   0.0000                                                             
   Description                                                                                      
     l       E           TYP  RCUT    TYP  RCUT                                                     
     0    -13.7508458     23  1.200                                                                 
     0     -8.2022199     23  1.200                                                                 
     1     -5.2854383     23  1.500                                                                 
     1     34.0145650     23  1.500                                                                 
     2     -5.4423304      7  1.500                                                                 
  local pseudopotential read in
  partial core-charges read in
  partial kinetic energy density read in
  atomic valenz-charges read in
  non local Contribution for L=            0  read in
    real space projection operators read in
  non local Contribution for L=            0  read in
    real space projection operators read in
  non local Contribution for L=            1  read in
    real space projection operators read in
  non local Contribution for L=            1  read in
    real space projection operators read in
    PAW grid and wavefunctions read in
 
   number of l-projection  operators is LMAX  =            4
   number of lm-projection operators is LMMAX =            8
 
 Optimization of the real space projectors (new method)

 maximal supplied QI-value         = 22.11
 optimisation between [QCUT,QGAM] = [ 13.49, 26.97] = [ 50.94,203.75] Ry 
 Optimized for a Real-space Cutoff    1.14 Angstroem

   l    n(q)    QCUT    max X(q) W(low)/X(q) W(high)/X(q)  e(spline) 
   0      9    13.487    53.033    0.17E-03    0.11E-03    0.20E-06
   0      9    13.487    34.740    0.17E-03    0.11E-03    0.20E-06
   1      9    13.487    30.949    0.61E-04    0.25E-04    0.11E-06
   1      9    13.487    19.518    0.55E-04    0.23E-04    0.10E-06
 Optimization of the real space projectors (new method)

 maximal supplied QI-value         = 25.13
 optimisation between [QCUT,QGAM] = [ 13.32, 26.89] = [ 49.69,202.52] Ry 
 Optimized for a Real-space Cutoff    1.07 Angstroem

   l    n(q)    QCUT    max X(q) W(low)/X(q) W(high)/X(q)  e(spline) 
   0      9    13.321   115.676    0.24E-03    0.18E-03    0.16E-06
   0      9    13.321    87.132    0.24E-03    0.18E-03    0.16E-06
   1      8    13.321     4.429    0.20E-03    0.27E-03    0.12E-06
   1      8    13.321     2.733    0.16E-03    0.21E-03    0.12E-06
  PAW_PBE B 06Sep2000                   :
 energy of atom  1       EATOM=  -71.1703
 kinetic energy error for atom=    0.0004 (will be added to EATOM!!)
  PAW_PBE C 08Apr2002                   :
 energy of atom  2       EATOM= -147.1560
 kinetic energy error for atom=    0.0032 (will be added to EATOM!!)
 
 
 POSCAR: B96 C24
  positions in direct lattice
  No initial velocities read in
 exchange correlation table for  LEXCH =        8
   RHO(1)=    0.500       N(1)  =     2000
   RHO(2)=  100.500       N(2)  =     4000
 


--------------------------------------------------------------------------------------------------------


 ion  position               nearest neighbor table
   1  0.158  0.404  0.404- 105 1.59  42 1.73  35 1.73  53 1.78  61 1.78  68 1.79
   2  0.158  0.404  0.904- 106 1.59  41 1.73  36 1.73  54 1.78  62 1.78  67 1.79
   3  0.158  0.904  0.404- 107 1.59  44 1.73  33 1.73  55 1.78  63 1.78  66 1.79
   4  0.158  0.904  0.904- 108 1.59  43 1.73  34 1.73  56 1.78  64 1.78  65 1.79
   5  0.658  0.404  0.404- 109 1.59  46 1.73  39 1.73  49 1.78  57 1.78  72 1.79
   6  0.658  0.404  0.904- 110 1.59  45 1.73  40 1.73  50 1.78  58 1.78  71 1.79
   7  0.658  0.904  0.404- 111 1.59  48 1.73  37 1.73  51 1.78  59 1.78  70 1.79
   8  0.658  0.904  0.904- 112 1.59  47 1.73  38 1.73  52 1.78  60 1.78  69 1.79
   9  0.402  0.402  0.157- 105 1.60  45 1.73  27 1.74  98 1.75  79 1.76  58 1.79
  10  0.402  0.402  0.657- 106 1.60  46 1.73  28 1.74  97 1.75  80 1.76  57 1.79
  11  0.402  0.902  0.157- 107 1.60  47 1.73  25 1.74 100 1.75  77 1.76  60 1.79
  12  0.402  0.902  0.657- 108 1.60  48 1.73  26 1.74  99 1.75  78 1.76  59 1.79
  13  0.902  0.402  0.157- 109 1.60  41 1.73  31 1.74 102 1.75  75 1.76  62 1.79
  14  0.902  0.402  0.657- 110 1.60  42 1.73  32 1.74 101 1.75  76 1.76  61 1.79
  15  0.902  0.902  0.157- 111 1.60  43 1.73  29 1.74 104 1.75  73 1.76  64 1.79
  16  0.902  0.902  0.657- 112 1.60  44 1.73  30 1.74 103 1.75  74 1.76  63 1.79
  17  0.402  0.157  0.402- 105 1.60  37 1.73  26 1.74  99 1.75  86 1.76  51 1.79
  18  0.402  0.157  0.902- 106 1.60  38 1.73  25 1.74 100 1.75  85 1.76  52 1.79
  19  0.402  0.657  0.402- 107 1.60  39 1.73  28 1.74  97 1.75  88 1.76  49 1.79
  20  0.402  0.657  0.902- 108 1.60  40 1.73  27 1.74  98 1.75  87 1.76  50 1.79
  21  0.902  0.157  0.402- 109 1.60  33 1.73  30 1.74 103 1.75  82 1.76  55 1.79
  22  0.902  0.157  0.902- 110 1.60  34 1.73  29 1.74 104 1.75  81 1.76  56 1.79
  23  0.902  0.657  0.402- 111 1.60  35 1.73  32 1.74 101 1.75  84 1.76  53 1.79
  24  0.902  0.657  0.902- 112 1.60  36 1.73  31 1.74 102 1.75  83 1.76  54 1.79
  25  0.341  0.097  0.097- 113 1.58 100 1.73  18 1.74  11 1.74  77 1.78  85 1.78
  26  0.341  0.097  0.597- 114 1.58  99 1.73  17 1.74  12 1.74  78 1.78  86 1.78
  27  0.341  0.597  0.097- 115 1.58  98 1.73  20 1.74   9 1.74  79 1.78  87 1.78
  28  0.341  0.597  0.597- 116 1.58  97 1.73  19 1.74  10 1.74  80 1.78  88 1.78
  29  0.841  0.097  0.097- 117 1.58 104 1.73  22 1.74  15 1.74  73 1.78  81 1.78
  30  0.841  0.097  0.597- 118 1.58 103 1.73  21 1.74  16 1.74  74 1.78  82 1.78
  31  0.841  0.597  0.097- 119 1.58 102 1.73  24 1.74  13 1.74  75 1.78  83 1.78
  32  0.841  0.597  0.597- 120 1.58 101 1.73  23 1.74  14 1.74  76 1.78  84 1.78
  33  0.099  0.097  0.344- 113 1.60  21 1.73   3 1.73  55 1.77  82 1.79  66 1.80
  34  0.099  0.097  0.844- 114 1.60  22 1.73   4 1.73  56 1.77  81 1.79  65 1.80
  35  0.099  0.597  0.344- 115 1.60  23 1.73   1 1.73  53 1.77  84 1.79  68 1.80
  36  0.099  0.597  0.844- 116 1.60  24 1.73   2 1.73  54 1.77  83 1.79  67 1.80
  37  0.599  0.097  0.344- 117 1.60  17 1.73   7 1.73  51 1.77  86 1.79  70 1.80
  38  0.599  0.097  0.844- 118 1.60  18 1.73   8 1.73  52 1.77  85 1.79  69 1.80
  39  0.599  0.597  0.344- 119 1.60  19 1.73   5 1.73  49 1.77  88 1.79  72 1.80
  40  0.599  0.597  0.844- 120 1.60  20 1.73   6 1.73  50 1.77  87 1.79  71 1.80
  41  0.099  0.344  0.097- 113 1.60  13 1.73   2 1.73  62 1.77  75 1.79  67 1.80
  42  0.099  0.344  0.597- 114 1.60  14 1.73   1 1.73  61 1.77  76 1.79  68 1.80
  43  0.099  0.844  0.097- 115 1.60  15 1.73   4 1.73  64 1.77  73 1.79  65 1.80
  44  0.099  0.844  0.597- 116 1.60  16 1.73   3 1.73  63 1.77  74 1.79  66 1.80
  45  0.599  0.344  0.097- 117 1.60   9 1.73   6 1.73  58 1.77  79 1.79  71 1.80
  46  0.599  0.344  0.597- 118 1.60  10 1.73   5 1.73  57 1.77  80 1.79  72 1.80
  47  0.599  0.844  0.097- 119 1.60  11 1.73   8 1.73  60 1.77  77 1.79  69 1.80
  48  0.599  0.844  0.597- 120 1.60  12 1.73   7 1.73  59 1.77  78 1.79  70 1.80
  49  0.494  0.497  0.337-  79 1.72  97 1.76  39 1.77   5 1.78  19 1.79  57 1.79
  50  0.494  0.497  0.837-  80 1.72  98 1.76  40 1.77   6 1.78  20 1.79  58 1.79
  51  0.494  0.997  0.337-  77 1.72  99 1.76  37 1.77   7 1.78  17 1.79  59 1.79
  52  0.494  0.997  0.837-  78 1.72 100 1.76  38 1.77   8 1.78  18 1.79  60 1.79
  53  0.994  0.497  0.337-  75 1.72 101 1.76  35 1.77   1 1.78  23 1.79  61 1.79
  54  0.994  0.497  0.837-  76 1.72 102 1.76  36 1.77   2 1.78  24 1.79  62 1.79
  55  0.994  0.997  0.337-  73 1.72 103 1.76  33 1.77   3 1.78  21 1.79  63 1.79
  56  0.994  0.997  0.837-  74 1.72 104 1.76  34 1.77   4 1.78  22 1.79  64 1.79
  57  0.494  0.337  0.497-  86 1.72  97 1.76  46 1.77   5 1.78  10 1.79  49 1.79
  58  0.494  0.337  0.997-  85 1.72  98 1.76  45 1.77   6 1.78   9 1.79  50 1.79
  59  0.494  0.837  0.497-  88 1.72  99 1.76  48 1.77   7 1.78  12 1.79  51 1.79
  60  0.494  0.837  0.997-  87 1.72 100 1.76  47 1.77   8 1.78  11 1.79  52 1.79
  61  0.994  0.337  0.497-  82 1.72 101 1.76  42 1.77   1 1.78  14 1.79  53 1.79
  62  0.994  0.337  0.997-  81 1.72 102 1.76  41 1.77   2 1.78  13 1.79  54 1.79
  63  0.994  0.837  0.497-  84 1.72 103 1.76  44 1.77   3 1.78  16 1.79  55 1.79
  64  0.994  0.837  0.997-  83 1.72 104 1.76  43 1.77   4 1.78  15 1.79  56 1.79
  65  0.171  0.003  0.003- 100 1.64   4 1.79  34 1.80  43 1.80  73 1.82  81 1.82
  66  0.171  0.003  0.503-  99 1.64   3 1.79  33 1.80  44 1.80  74 1.82  82 1.82
  67  0.171  0.503  0.003-  98 1.64   2 1.79  36 1.80  41 1.80  75 1.82  83 1.82
  68  0.171  0.503  0.503-  97 1.64   1 1.79  35 1.80  42 1.80  76 1.82  84 1.82
  69  0.671  0.003  0.003- 104 1.64   8 1.79  38 1.80  47 1.80  77 1.82  85 1.82
  70  0.671  0.003  0.503- 103 1.64   7 1.79  37 1.80  48 1.80  78 1.82  86 1.82
  71  0.671  0.503  0.003- 102 1.64   6 1.79  40 1.80  45 1.80  79 1.82  87 1.82
  72  0.671  0.503  0.503- 101 1.64   5 1.79  39 1.80  46 1.80  80 1.82  88 1.82
  73  0.003  0.003  0.164-  55 1.72  15 1.76  29 1.78  43 1.79  81 1.80  65 1.82
  74  0.003  0.003  0.664-  56 1.72  16 1.76  30 1.78  44 1.79  82 1.80  66 1.82
  75  0.003  0.503  0.164-  53 1.72  13 1.76  31 1.78  41 1.79  83 1.80  67 1.82
  76  0.003  0.503  0.664-  54 1.72  14 1.76  32 1.78  42 1.79  84 1.80  68 1.82
  77  0.503  0.003  0.164-  51 1.72  11 1.76  25 1.78  47 1.79  85 1.80  69 1.82
  78  0.503  0.003  0.664-  52 1.72  12 1.76  26 1.78  48 1.79  86 1.80  70 1.82
  79  0.503  0.503  0.164-  49 1.72   9 1.76  27 1.78  45 1.79  87 1.80  71 1.82
  80  0.503  0.503  0.664-  50 1.72  10 1.76  28 1.78  46 1.79  88 1.80  72 1.82
  81  0.003  0.164  0.003-  62 1.72  22 1.76  29 1.78  34 1.79  73 1.80  65 1.82
  82  0.003  0.164  0.503-  61 1.72  21 1.76  30 1.78  33 1.79  74 1.80  66 1.82
  83  0.003  0.664  0.003-  64 1.72  24 1.76  31 1.78  36 1.79  75 1.80  67 1.82
  84  0.003  0.664  0.503-  63 1.72  23 1.76  32 1.78  35 1.79  76 1.80  68 1.82
  85  0.503  0.164  0.003-  58 1.72  18 1.76  25 1.78  38 1.79  77 1.80  69 1.82
  86  0.503  0.164  0.503-  57 1.72  17 1.76  26 1.78  37 1.79  78 1.80  70 1.82
  87  0.503  0.664  0.003-  60 1.72  20 1.76  27 1.78  40 1.79  79 1.80  71 1.82
  88  0.503  0.664  0.503-  59 1.72  19 1.76  28 1.78  39 1.79  80 1.80  72 1.82
  89  0.248  0.249  0.249- 113 1.41 105 1.43
  90  0.248  0.249  0.749- 114 1.41 106 1.43
  91  0.248  0.749  0.249- 115 1.41 107 1.43
  92  0.248  0.749  0.749- 116 1.41 108 1.43
  93  0.748  0.249  0.249- 117 1.41 109 1.43
  94  0.748  0.249  0.749- 118 1.41 110 1.43
  95  0.748  0.749  0.249- 119 1.41 111 1.43
  96  0.748  0.749  0.749- 120 1.41 112 1.43
  97  0.338  0.498  0.498-  68 1.64  28 1.73  10 1.75  19 1.75  49 1.76  57 1.76
  98  0.338  0.498  0.998-  67 1.64  27 1.73   9 1.75  20 1.75  50 1.76  58 1.76
  99  0.338  0.998  0.498-  66 1.64  26 1.73  12 1.75  17 1.75  51 1.76  59 1.76
 100  0.338  0.998  0.998-  65 1.64  25 1.73  11 1.75  18 1.75  52 1.76  60 1.76
 101  0.838  0.498  0.498-  72 1.64  32 1.73  14 1.75  23 1.75  53 1.76  61 1.76
 102  0.838  0.498  0.998-  71 1.64  31 1.73  13 1.75  24 1.75  54 1.76  62 1.76
 103  0.838  0.998  0.498-  70 1.64  30 1.73  16 1.75  21 1.75  55 1.76  63 1.76
 104  0.838  0.998  0.998-  69 1.64  29 1.73  15 1.75  22 1.75  56 1.76  64 1.76
 105  0.306  0.309  0.309-  89 1.43   1 1.59   9 1.60  17 1.60
 106  0.306  0.309  0.809-  90 1.43   2 1.59  10 1.60  18 1.60
 107  0.306  0.809  0.309-  91 1.43   3 1.59  11 1.60  19 1.60
 108  0.306  0.809  0.809-  92 1.43   4 1.59  12 1.60  20 1.60
 109  0.806  0.309  0.309-  93 1.43   5 1.59  13 1.60  21 1.60
 110  0.806  0.309  0.809-  94 1.43   6 1.59  14 1.60  22 1.60
 111  0.806  0.809  0.309-  95 1.43   7 1.59  15 1.60  23 1.60
 112  0.806  0.809  0.809-  96 1.43   8 1.59  16 1.60  24 1.60
 113  0.191  0.189  0.189-  89 1.41  25 1.58  33 1.60  41 1.60
 114  0.191  0.189  0.689-  90 1.41  26 1.58  34 1.60  42 1.60
 115  0.191  0.689  0.189-  91 1.41  27 1.58  35 1.60  43 1.60
 116  0.191  0.689  0.689-  92 1.41  28 1.58  36 1.60  44 1.60
 117  0.691  0.189  0.189-  93 1.41  29 1.58  37 1.60  45 1.60
 118  0.691  0.189  0.689-  94 1.41  30 1.58  38 1.60  46 1.60
 119  0.691  0.689  0.189-  95 1.41  31 1.58  39 1.60  47 1.60
 120  0.691  0.689  0.689-  96 1.41  32 1.58  40 1.60  48 1.60
 
  LATTYP: Found a base centered monoclinic cell.
 ALAT       =    17.3422026552
 B/A-ratio  =     0.6417943342
 C/A-ratio  =     0.5791019906
 COS(beta)  =    -0.4855436724
  
  Lattice vectors:
  
 A1 = (  -2.6497070000,  -9.0076490000,  -4.2425530000)
 A2 = (   0.0509250000,  -0.0713060000, -10.3029240000)
 A3 = (   9.1457570000,   0.0496820000,   4.1488050000)


Analysis of symmetry for initial positions (statically):
=====================================================================
 Subroutine PRICEL returns following result:
 
  LATTYP: Found a base centered monoclinic cell.
 ALAT       =     8.6711013276
 B/A-ratio  =     0.6417943342
 C/A-ratio  =     0.5791019906
 COS(beta)  =    -0.4855436724
  
  Lattice vectors:
  
 A1 = (  -1.3248535000,  -4.5038245000,  -2.1212765000)
 A2 = (   0.0254625000,  -0.0356530000,  -5.1514620000)
 A3 = (   4.5728785000,   0.0248410000,   2.0744025000)
 
   8 primitive cells build up your supercell.
 

 Routine SETGRP: Setting up the symmetry group for a 
 base centered monoclinic supercell.


 Subroutine GETGRP returns: Found  2 space group operations
 (whereof  2 operations were pure point group operations)
 out of a pool of  4 trial point group operations.


The static configuration has the point symmetry C_1h.


Analysis of symmetry for dynamics (positions and initial velocities):
=====================================================================
 Subroutine PRICEL returns following result:
 
  LATTYP: Found a base centered monoclinic cell.
 ALAT       =     8.6711013276
 B/A-ratio  =     0.6417943342
 C/A-ratio  =     0.5791019906
 COS(beta)  =    -0.4855436724
  
  Lattice vectors:
  
 A1 = (  -1.3248535000,  -4.5038245000,  -2.1212765000)
 A2 = (   0.0254625000,  -0.0356530000,  -5.1514620000)
 A3 = (   4.5728785000,   0.0248410000,   2.0744025000)
 
   8 primitive cells build up your supercell.
 

 Routine SETGRP: Setting up the symmetry group for a 
 base centered monoclinic supercell.


 Subroutine GETGRP returns: Found  2 space group operations
 (whereof  2 operations were pure point group operations)
 out of a pool of  4 trial point group operations.


The dynamic configuration has the point symmetry C_1h.


 Subroutine INISYM returns: Found  2 space group operations
 (whereof  2 operations are pure point group operations),
 and found     8 'primitive' translations


----------------------------------------------------------------------------------------

                                     Primitive cell                                     

  volume of cell :     105.9158

  direct lattice vectors                    reciprocal lattice vectors
    -1.324853500 -4.503824500 -2.121276500     0.000509922 -0.222911336  0.001545278
     0.025462500 -0.035653000 -5.151462000     0.087711667  0.065637622 -0.194140386
     4.572878500  0.024841000  2.074402500     0.218339983 -0.064947311  0.001528702

  length of vectors
     5.151648854  5.151648301  5.021452039     0.222917275  0.222917302  0.227799996

  position of ions in fractional coordinates (direct lattice)
     0.192484000  0.192484000  0.315846000
     0.195324000  0.685560000  0.803264000
     0.685560000  0.195324000  0.803264000
     0.806670000  0.806670000  0.682732000
     0.806328000  0.312578000  0.197400000
     0.312578000  0.806328000  0.197400000
     0.005202000  0.326404000  0.988894000
     0.326404000  0.005202000  0.988894000
     0.994100000  0.994100000  0.341590000
     0.994490000  0.671276000  0.006950000
     0.671276000  0.994490000  0.006950000
     0.501982000  0.501982000  0.495990000
     0.004144000  0.004144000  0.676672000
     0.381126000  0.381126000  0.612176000
     0.622330000  0.622330000  0.381978000

  ion indices of the primitive-cell ions
   primitive index   ion index
                 1           1
                 2           9
                 3          17
                 4          28
                 5          35
                 6          42
                 7          53
                 8          61
                 9          68
                10          75
                11          82
                12          89
                13          97
                14         105
                15         113

----------------------------------------------------------------------------------------

 
 -----------------------------------------------------------------------------
|                                                                             |
|           W    W    AA    RRRRR   N    N  II  N    N   GGGG   !!!           |
|           W    W   A  A   R    R  NN   N  II  NN   N  G    G  !!!           |
|           W    W  A    A  R    R  N N  N  II  N N  N  G       !!!           |
|           W WW W  AAAAAA  RRRRR   N  N N  II  N  N N  G  GGG   !            |
|           WW  WW  A    A  R   R   N   NN  II  N   NN  G    G                |
|           W    W  A    A  R    R  N    N  II  N    N   GGGG   !!!           |
|                                                                             |
|     The requested file  could not be found or opened for reading            |
|     k-point information. Automatic k-point generation is used as a          |
|     fallback, which may lead to unwanted results.                           |
|                                                                             |
 -----------------------------------------------------------------------------

 

Automatic generation of k-mesh.
 Grid dimensions derived from KSPACING:
 generate k-points for:    2    2    2

 Generating k-lattice:

  Cartesian coordinates                     Fractional coordinates (reciprocal lattice)
     0.054584996 -0.016236828  0.000382175     0.500000000 -0.000000000 -0.000000000
    -0.000127481  0.055727834 -0.000386320    -0.000000000  0.500000000  0.000000000
    -0.021927917 -0.016409405  0.048535096     0.000000000  0.000000000  0.500000000

  Length of vectors
     0.056949999  0.055729319  0.055729325

  Shift w.r.t. Gamma in fractional coordinates (k-lattice)
     0.000000000  0.000000000  0.000000000

 TETIRR: Found     12 inequivalent tetrahedra from       48
 
 Subroutine IBZKPT returns following result:
 ===========================================
 
 Found      6 irreducible k-points:
 
 Following reciprocal coordinates:
            Coordinates               Weight
  0.000000  0.000000  0.000000      1.000000
  0.500000  0.000000  0.000000      1.000000
  0.000000  0.500000  0.000000      2.000000
  0.500000  0.500000  0.000000      2.000000
  0.000000  0.500000  0.500000      1.000000
  0.500000  0.500000  0.500000      1.000000
 
 Following cartesian coordinates:
            Coordinates               Weight
  0.000000  0.000000  0.000000      1.000000
  0.054585 -0.016237  0.000382      1.000000
 -0.000127  0.055728 -0.000386      2.000000
  0.054458  0.039491 -0.000004      2.000000
 -0.022055  0.039318  0.048149      1.000000
  0.032530  0.023082  0.048531      1.000000
 


--------------------------------------------------------------------------------------------------------




 Dimension of arrays:
   k-points           NKPTS =      6   k-points in BZ     NKDIM =      6   number of bands    NBANDS=    253
   number of dos      NEDOS =    301   number of ions     NIONS =    120
   non local maximal  LDIM  =      4   non local SUM 2l+1 LMDIM =      8
   total plane-waves  NPLWV = 729000
   max r-space proj   IRMAX =   5394   max aug-charges    IRDMAX=  13615
   dimension x,y,z NGX =    90 NGY =   90 NGZ =   90
   dimension x,y,z NGXF=   180 NGYF=  180 NGZF=  180
   support grid    NGXF=   180 NGYF=  180 NGZF=  180
   ions per type =              96  24
   NGX,Y,Z   is equivalent  to a cutoff of  14.90, 14.52, 14.52 a.u.
   NGXF,Y,Z  is equivalent  to a cutoff of  29.80, 29.04, 29.04 a.u.

 SYSTEM =  unknown system                          
 POSCAR =  B96 C24                                 

 Startparameter for this run:
   NWRITE =      2    write-flag & timer
   PREC   = accura    normal or accurate (medium, high low for compatibility)
   ISTART =      0    job   : 0-new  1-cont  2-samecut
   ICHARG =      2    charge: 1-file 2-atom 10-const
   ISPIN  =      1    spin polarized calculation?
   LNONCOLLINEAR =      F non collinear calculations
   LSORBIT =      F    spin-orbit coupling
   INIWAV =      1    electr: 0-lowe 1-rand  2-diag
   LASPH  =      F    aspherical Exc in radial PAW
   METAGGA=      F    non-selfconsistent MetaGGA calc.

 Electronic Relaxation 1
   ENCUT  =  700.0 eV  51.45 Ry    7.17 a.u.  21.67 22.23 22.23*2*pi/ulx,y,z
   ENINI  =  700.0     initial cutoff
   ENAUG  =  644.9 eV  augmentation charge cutoff
   NELM   =     60;   NELMIN=  2; NELMDL= -5     # of ELM steps 
   EDIFF  = 0.1E-05   stopping-criterion for ELM
   LREAL  =      T    real-space projection
   NLSPLINE    = F    spline interpolate recip. space projectors
   LCOMPAT=      F    compatible to vasp.4.4
   GGA_COMPAT  = T    GGA compatible to vasp.4.4-vasp.4.6
   LMAXPAW     = -100 max onsite density
   LMAXMIX     =    2 max onsite mixed and CHGCAR
   VOSKOWN=      0    Vosko Wilk Nusair interpolation
   ROPT   =   -0.00025  -0.00025
 Ionic relaxation
   EDIFFG = 0.1E-04   stopping-criterion for IOM
   NSW    =    300    number of steps for IOM
   NBLOCK =      1;   KBLOCK =    300    inner block; outer block 
   IBRION =      2    ionic relax: 0-MD 1-quasi-New 2-CG
   NFREE  =      1    steps in history (QN), initial steepest desc. (CG)
   ISIF   =      4    stress and relaxation
   IWAVPR =     11    prediction:  0-non 1-charg 2-wave 3-comb
   ISYM   =      2    0-nonsym 1-usesym 2-fastsym
   LCORR  =      T    Harris-Foulkes like correction to forces

   POTIM  = 0.5000    time-step for ionic-motion
   TEIN   =    0.0    initial temperature
   TEBEG  =    0.0;   TEEND  =   0.0 temperature during run
   SMASS  =  -3.00    Nose mass-parameter (am)
   estimated Nose-frequenzy (Omega)   =  0.10E-29 period in steps = 0.13E+47 mass=  -0.230E-26a.u.
   SCALEE = 1.0000    scale energy and forces
   NPACO  =    256;   APACO  = 16.0  distance and # of slots for P.C.
   PSTRESS=    0.0 pullay stress

  Mass of Ions in am
   POMASS =  10.81 12.01
  Ionic Valenz
   ZVAL   =   3.00  4.00
  Atomic Wigner-Seitz radii
   RWIGS  =  -1.00 -1.00
  virtual crystal weights 
   VCA    =   1.00  1.00
   NELECT =     384.0000    total number of electrons
   NUPDOWN=      -1.0000    fix difference up-down

 DOS related values:
   EMIN   =  10.00;   EMAX   =-10.00  energy-range for DOS
   EFERMI =   0.00
   ISMEAR =    -5;   SIGMA  =   0.05  broadening in eV -4-tet -1-fermi 0-gaus

 Electronic relaxation 2 (details)
   IALGO  =     68    algorithm
   LDIAG  =      T    sub-space diagonalisation (order eigenvalues)
   LSUBROT=      F    optimize rotation matrix (better conditioning)
   TURBO    =      0    0=normal 1=particle mesh
   IRESTART =      0    0=no restart 2=restart with 2 vectors
   NREBOOT  =      0    no. of reboots
   NMIN     =      0    reboot dimension
   EREF     =   0.00    reference energy to select bands
   IMIX   =      4    mixing-type and parameters
     AMIX     =   0.40;   BMIX     =  1.00
     AMIX_MAG =   1.60;   BMIX_MAG =  1.00
     AMIN     =   0.10
     WC   =   100.;   INIMIX=   1;  MIXPRE=   1;  MAXMIX= -45

 Intra band minimization:
   WEIMIN = 0.0010     energy-eigenvalue tresh-hold
   EBREAK =  0.99E-09  absolut break condition
   DEPER  =   0.30     relativ break condition  

   TIME   =   0.40     timestep for ELM

  volume/ion in A,a.u.               =       7.06        47.65
  Fermi-wavevector in a.u.,A,eV,Ry     =   1.257482  2.376296 21.514352  1.581260
  Thomas-Fermi vector in A             =   2.391139
 
 Write flags
   LWAVE        =      F    write WAVECAR
   LDOWNSAMPLE  =      F    k-point downsampling of WAVECAR
   LCHARG       =      T    write CHGCAR
   LVTOT        =      F    write LOCPOT, total local potential
   LVHAR        =      F    write LOCPOT, Hartree potential only
   LELF         =      F    write electronic localiz. function (ELF)
   LORBIT       =      0    0 simple, 1 ext, 2 COOP (PROOUT), +10 PAW based schemes


 Dipole corrections
   LMONO  =      F    monopole corrections only (constant potential shift)
   LDIPOL =      F    correct potential (dipole corrections)
   IDIPOL =      0    1-x, 2-y, 3-z, 4-all directions 
   EPSILON=  1.0000000 bulk dielectric constant

 Exchange correlation treatment:
   GGA     =    --    GGA type
   LEXCH   =     8    internal setting for exchange type
   VOSKOWN=      0    Vosko Wilk Nusair interpolation
   LHFCALC =     F    Hartree Fock is set to
   LHFONE  =     F    Hartree Fock one center treatment
   AEXX    =    0.0000 exact exchange contribution

 Linear response parameters
   LEPSILON=     F    determine dielectric tensor
   LRPA    =     F    only Hartree local field effects (RPA)
   LNABLA  =     F    use nabla operator in PAW spheres
   LVEL    =     F    velocity operator in full k-point grid
   LINTERFAST=   F  fast interpolation
   KINTER  =     0    interpolate to denser k-point grid
   CSHIFT  =0.1000    complex shift for real part using Kramers Kronig
   OMEGAMAX=  -1.0    maximum frequency
   DEG_THRESHOLD= 0.2000000E-02 threshold for treating states as degnerate
   RTIME   =   -0.100 relaxation time in fs
  (WPLASMAI=    0.000 imaginary part of plasma frequency in eV, 0.658/RTIME)
   DFIELD  = 0.0000000 0.0000000 0.0000000 field for delta impulse in time
 
 Orbital magnetization related:
   ORBITALMAG=     F  switch on orbital magnetization
   LCHIMAG   =     F  perturbation theory with respect to B field
   DQ        =  0.001000  dq finite difference perturbation B field
   LLRAUG    =     F  two centre corrections for induced B field



--------------------------------------------------------------------------------------------------------


 conjugate gradient relaxation of ions
 charge density and potential will be updated during run
 non-spin polarized calculation
 RMM-DIIS sequential band-by-band and
  variant of blocked Davidson during initial phase
 perform sub-space diagonalisation
    before iterative eigenvector-optimisation
 modified Broyden-mixing scheme, WC =      100.0
 initial mixing is a Kerker type mixing with AMIX =  0.4000 and BMIX =      1.0000
 Hartree-type preconditioning will be used
 using additional bands            61
 real space projection scheme for non local part
 use partial core corrections
 calculate Harris-corrections to forces 
   (improved forces if not selfconsistent)
 use gradient corrections 
 use of overlap-Matrix (Vanderbilt PP)
 Fermi weights with tetrahedron method with Bloechl corrections


--------------------------------------------------------------------------------------------------------


  energy-cutoff  :      700.00
  volume of cell :      847.33
      direct lattice vectors                 reciprocal lattice vectors
     9.145757000  0.049682000  4.148805000     0.109169991 -0.032473655  0.000764351
     2.649707000  9.007649000  4.242553000    -0.000254961  0.111455668 -0.000772639
    -0.050925000  0.071306000 10.302924000    -0.043855834 -0.032818811  0.097070193

  length of vectors
    10.042904079 10.303297708 10.303296601     0.113899998  0.111458637  0.111458651


 
 k-points in units of 2pi/SCALE and weight: read from INCAR                         
   0.00000000  0.00000000  0.00000000       0.125
   0.05458500 -0.01623683  0.00038218       0.125
  -0.00012748  0.05572783 -0.00038632       0.250
   0.05445752  0.03949101 -0.00000414       0.250
  -0.02205540  0.03931843  0.04814878       0.125
   0.03252960  0.02308160  0.04853095       0.125
 
 k-points in reciprocal lattice and weights: read from INCAR                         
   0.00000000  0.00000000  0.00000000       0.125
   0.50000000  0.00000000  0.00000000       0.125
   0.00000000  0.50000000  0.00000000       0.250
   0.50000000  0.50000000  0.00000000       0.250
   0.00000000  0.50000000  0.50000000       0.125
   0.50000000  0.50000000  0.50000000       0.125
 
 position of ions in fractional coordinates (direct lattice) 
   0.15792300  0.40375800  0.40375800
   0.15792300  0.40375800  0.90375800
   0.15792300  0.90375800  0.40375800
   0.15792300  0.90375800  0.90375800
   0.65792300  0.40375800  0.40375800
   0.65792300  0.40375800  0.90375800
   0.65792300  0.90375800  0.40375800
   0.65792300  0.90375800  0.90375800
   0.40163200  0.40233800  0.15722000
   0.40163200  0.40233800  0.65722000
   0.40163200  0.90233800  0.15722000
   0.40163200  0.90233800  0.65722000
   0.90163200  0.40233800  0.15722000
   0.90163200  0.40233800  0.65722000
   0.90163200  0.90233800  0.15722000
   0.90163200  0.90233800  0.65722000
   0.40163200  0.15722000  0.40233800
   0.40163200  0.15722000  0.90233800
   0.40163200  0.65722000  0.40233800
   0.40163200  0.65722000  0.90233800
   0.90163200  0.15722000  0.40233800
   0.90163200  0.15722000  0.90233800
   0.90163200  0.65722000  0.40233800
   0.90163200  0.65722000  0.90233800
   0.34136600  0.09666500  0.09666500
   0.34136600  0.09666500  0.59666500
   0.34136600  0.59666500  0.09666500
   0.34136600  0.59666500  0.59666500
   0.84136600  0.09666500  0.09666500
   0.84136600  0.09666500  0.59666500
   0.84136600  0.59666500  0.09666500
   0.84136600  0.59666500  0.59666500
   0.09870000  0.09683600  0.34371100
   0.09870000  0.09683600  0.84371100
   0.09870000  0.59683600  0.34371100
   0.09870000  0.59683600  0.84371100
   0.59870000  0.09683600  0.34371100
   0.59870000  0.09683600  0.84371100
   0.59870000  0.59683600  0.34371100
   0.59870000  0.59683600  0.84371100
   0.09870000  0.34371100  0.09683600
   0.09870000  0.34371100  0.59683600
   0.09870000  0.84371100  0.09683600
   0.09870000  0.84371100  0.59683600
   0.59870000  0.34371100  0.09683600
   0.59870000  0.34371100  0.59683600
   0.59870000  0.84371100  0.09683600
   0.59870000  0.84371100  0.59683600
   0.49444700  0.49739900  0.33679800
   0.49444700  0.49739900  0.83679800
   0.49444700  0.99739900  0.33679800
   0.49444700  0.99739900  0.83679800
   0.99444700  0.49739900  0.33679800
   0.99444700  0.49739900  0.83679800
   0.99444700  0.99739900  0.33679800
   0.99444700  0.99739900  0.83679800
   0.49444700  0.33679800  0.49739900
   0.49444700  0.33679800  0.99739900
   0.49444700  0.83679800  0.49739900
   0.49444700  0.83679800  0.99739900
   0.99444700  0.33679800  0.49739900
   0.99444700  0.33679800  0.99739900
   0.99444700  0.83679800  0.49739900
   0.99444700  0.83679800  0.99739900
   0.17079500  0.00295000  0.00295000
   0.17079500  0.00295000  0.50295000
   0.17079500  0.50295000  0.00295000
   0.17079500  0.50295000  0.50295000
   0.67079500  0.00295000  0.00295000
   0.67079500  0.00295000  0.50295000
   0.67079500  0.50295000  0.00295000
   0.67079500  0.50295000  0.50295000
   0.00347500  0.00275500  0.16436200
   0.00347500  0.00275500  0.66436200
   0.00347500  0.50275500  0.16436200
   0.00347500  0.50275500  0.66436200
   0.50347500  0.00275500  0.16436200
   0.50347500  0.00275500  0.66436200
   0.50347500  0.50275500  0.16436200
   0.50347500  0.50275500  0.66436200
   0.00347500  0.16436200  0.00275500
   0.00347500  0.16436200  0.50275500
   0.00347500  0.66436200  0.00275500
   0.00347500  0.66436200  0.50275500
   0.50347500  0.16436200  0.00275500
   0.50347500  0.16436200  0.50275500
   0.50347500  0.66436200  0.00275500
   0.50347500  0.66436200  0.50275500
   0.24799500  0.24900900  0.24900900
   0.24799500  0.24900900  0.74900900
   0.24799500  0.74900900  0.24900900
   0.24799500  0.74900900  0.74900900
   0.74799500  0.24900900  0.24900900
   0.74799500  0.24900900  0.74900900
   0.74799500  0.74900900  0.24900900
   0.74799500  0.74900900  0.74900900
   0.33833600  0.49792800  0.49792800
   0.33833600  0.49792800  0.99792800
   0.33833600  0.99792800  0.49792800
   0.33833600  0.99792800  0.99792800
   0.83833600  0.49792800  0.49792800
   0.83833600  0.49792800  0.99792800
   0.83833600  0.99792800  0.49792800
   0.83833600  0.99792800  0.99792800
   0.30608800  0.30943700  0.30943700
   0.30608800  0.30943700  0.80943700
   0.30608800  0.80943700  0.30943700
   0.30608800  0.80943700  0.80943700
   0.80608800  0.30943700  0.30943700
   0.80608800  0.30943700  0.80943700
   0.80608800  0.80943700  0.30943700
   0.80608800  0.80943700  0.80943700
   0.19098900  0.18883500  0.18883500
   0.19098900  0.18883500  0.68883500
   0.19098900  0.68883500  0.18883500
   0.19098900  0.68883500  0.68883500
   0.69098900  0.18883500  0.18883500
   0.69098900  0.18883500  0.68883500
   0.69098900  0.68883500  0.18883500
   0.69098900  0.68883500  0.68883500
 
 position of ions in cartesian coordinates  (Angst):
   2.49360441  3.67354664  6.52804443
   2.46814191  3.70919964 11.67950643
   3.81845791  8.17737114  8.64932093
   3.79299541  8.21302414 13.80078293
   7.06648291  3.69838764  8.60244693
   7.04102041  3.73404064 13.75390893
   8.39133641  8.20221214 10.72372343
   8.36587391  8.23786514 15.87518543
   4.73130006  3.65528409  4.99305885
   4.70583756  3.69093709 10.14452085
   6.05615356  8.15910859  7.11433535
   6.03069106  8.19476159 12.26579735
   9.30417856  3.68012509  7.06746135
   9.27871606  3.71577809 12.21892335
  10.62903206  8.18394959  9.18873785
  10.60356956  8.21960259 14.34019985
   4.06932655  1.46482557  6.47856487
   4.04386405  1.50047857 11.63002687
   5.39418005  5.96865007  8.59984137
   5.36871755  6.00430307 13.75130337
   8.64220505  1.48966657  8.55296737
   8.61674255  1.52531957 13.70442937
   9.96705855  5.99349107 10.67424387
   9.94159605  6.02914407 15.82570587
   3.37326175  0.89457693  2.82229950
   3.34779925  0.93022993  7.97376150
   4.69811525  5.39840143  4.94357600
   4.67265275  5.43405443 10.09503800
   7.94614025  0.91941793  4.89670200
   7.92067775  0.95507093 10.04816400
   9.27099375  5.42324243  7.01797850
   9.24553125  5.45889543 12.16944050
   1.14176976  0.90167697  4.36154723
   1.11630726  0.93732997  9.51300923
   2.46662326  5.40550147  6.48282373
   2.44116076  5.44115447 11.63428573
   5.71464826  0.92651797  6.43594973
   5.68918576  0.96217097 11.58741173
   7.03950176  5.43034247  8.55722623
   7.01403926  5.46599547 13.70868823
   1.80848829  3.10783665  2.86539314
   1.78302579  3.14348965  8.01685514
   3.13334179  7.61166115  4.98666964
   3.10787929  7.64731415 10.13813164
   6.38136679  3.13267765  4.93979564
   6.35590429  3.16833065 10.09125764
   7.70622029  7.63650215  7.06107214
   7.68075779  7.67215515 12.21253414
   5.82290229  4.52897644  7.63161000
   5.79743979  4.56462944 12.78307200
   7.14775579  9.03280094  9.75288650
   7.12229329  9.06845394 14.90434850
  10.39578079  4.55381744  9.70601250
  10.37031829  4.58947044 14.85747450
  11.72063429  9.05764194 11.82728900
  11.69517179  9.09329494 16.97875100
   5.38917809  3.09379082  8.60491165
   5.36371559  3.12944382 13.75637365
   6.71403159  7.59761532 10.72618815
   6.68856909  7.63326832 15.87765015
   9.96205659  3.11863182 10.67931415
   9.93659409  3.15428482 15.83077615
  11.28691009  7.62245632 12.80059065
  11.26144759  7.65810932 17.95205265
   1.56971597  0.03526835  0.75150431
   1.54425347  0.07092135  5.90296631
   2.89456947  4.53909285  2.87278081
   2.86910697  4.57474585  8.02424281
   6.14259447  0.06010935  2.82590681
   6.11713197  0.09576235  7.97736881
   7.46744797  4.56393385  4.94718331
   7.44198547  4.59958685 10.09864531
   0.03071131  0.03670871  1.71951453
   0.00524881  0.07236171  6.87097653
   1.35556481  4.54053321  3.84079103
   1.33010231  4.57618621  8.99225303
   4.60358981  0.06154971  3.79391703
   4.57812731  0.09720271  8.94537903
   5.92844331  4.56537421  5.91519353
   5.90298081  4.60102721 11.06665553
   0.46715235  1.48088430  0.74011615
   0.44168985  1.51653730  5.89157815
   1.79200585  5.98470880  2.86139265
   1.76654335  6.02036180  8.01285465
   5.04003085  1.50572530  2.81451865
   5.01456835  1.54137830  7.96598065
   6.36488435  6.00954980  4.93579515
   6.33942185  6.04520280 10.08725715
   2.91522211  2.27306239  4.65083758
   2.88975961  2.30871539  9.80229958
   4.24007561  6.77688689  6.77211408
   4.21461311  6.81253989 11.92357608
   7.48810061  2.29790339  6.72524008
   7.46263811  2.33355639 11.87670208
   8.81295411  6.80172789  8.84651658
   8.78749161  6.83738089 13.99797858
   4.38834516  4.53747511  8.64629036
   4.36288266  4.57312811 13.79775236
   5.71319866  9.04129961 10.76756686
   5.68773616  9.07695261 15.91902886
   8.96122366  4.56231611 10.72069286
   8.93576116  4.59796911 15.87215486
  10.28607716  9.06614061 12.84196936
  10.26061466  9.10179361 17.99343136
   3.60356577  2.82457166  5.77080819
   3.57810327  2.86022466 10.92227019
   4.92841927  7.32839616  7.89208469
   4.90295677  7.36404916 13.04354669
   8.17644427  2.84941266  7.84521069
   8.15098177  2.88506566 12.99667269
   9.50129777  7.35323716  9.96648719
   9.47583527  7.38889016 15.11794919
   2.23747998  1.72391318  3.53907127
   2.21201748  1.75956618  8.69053327
   3.56233348  6.22773768  5.66034777
   3.53687098  6.26339068 10.81180977
   6.81035848  1.74875418  5.61347377
   6.78489598  1.78440718 10.76493577
   8.13521198  6.25257868  7.73475027
   8.10974948  6.28823168 12.88621227
 


--------------------------------------------------------------------------------------------------------


 k-point   1 :   0.0000 0.0000 0.0000  plane waves:   35611
 k-point   2 :   0.5000 0.0000 0.0000  plane waves:   35594
 k-point   3 :   0.0000 0.5000 0.0000  plane waves:   35646
 k-point   4 :   0.5000 0.5000 0.0000  plane waves:   35642
 k-point   5 :   0.0000 0.5000 0.5000  plane waves:   35646
 k-point   6 :   0.5000 0.5000 0.5000  plane waves:   35594

 maximum and minimum number of plane-waves per node :     35646    35594

 maximum number of plane-waves:     35646
 maximum index in each direction: 
   IXMAX=   21   IYMAX=   22   IZMAX=   22
   IXMIN=  -22   IYMIN=  -22   IZMIN=  -22


 serial   3D FFT for wavefunctions
 parallel 3D FFT for charge:
    minimum data exchange during FFTs selected (reduces bandwidth)


 total amount of memory used by VASP MPI-rank0  1531960. kBytes
=======================================================================

   base      :      30000. kBytes
   nonlr-proj:      53417. kBytes
   fftplans  :     200616. kBytes
   grid      :     358473. kBytes
   one-center:        368. kBytes
   wavefun   :     889086. kBytes
 
     INWAV:  cpu time    0.0002: real time    0.0002
 Broyden mixing: mesh for mixing (old mesh)
   NGX = 43   NGY = 45   NGZ = 45
  (NGX  =180   NGY  =180   NGZ  =180)
  gives a total of  87075 points

 initial charge density was supplied:
 charge density of overlapping atoms calculated
 number of electron     384.0000000 magnetization 
 keeping initial charge density in first step


--------------------------------------------------------------------------------------------------------


 Maximum index for non-local projection operator          5204
 Maximum index for augmentation-charges         13022 (set IRDMAX)


--------------------------------------------------------------------------------------------------------


 First call to EWALD:  gamma=   0.187
 Maximum number of real-space cells 3x 3x 3
 Maximum number of reciprocal cells 3x 3x 3

    FEWALD:  cpu time    0.0777: real time    0.0777


--------------------------------------- Iteration      1(   1)  ---------------------------------------


    POTLOK:  cpu time    0.1371: real time    0.1371
    SETDIJ:  cpu time    0.1344: real time    0.1343
     EDDAV:  cpu time    5.0034: real time    5.0027
 BZINTS: Fermi energy:   17.942723;  384.000000 electrons
         Band energy: 0.168227E+04;  BLOECHL correction:   -0.037535
       DOS:  cpu time    0.0130: real time    0.0130
    --------------------------------------------
      LOOP:  cpu time    5.2879: real time    5.2871

 eigenvalue-minimisations  :  3036
 total energy-change (2. order) : 0.1567057E+04  (-0.2204474E+05)
 number of electron     384.0000000 magnetization 
 augmentation part      384.0000000 magnetization 

 Free energy of the ion-electron system (eV)
  ---------------------------------------------------
  alpha Z        PSCENC =      1221.04105685
  Ewald energy   TEWEN  =    -11740.79940454
  -Hartree energ DENC   =     -1051.69857290
  -exchange      EXHF   =         0.00000000
  -V(xc)+E(xc)   XCENC  =      1023.81781246
  PAW double counting   =      6780.51620165    -6712.07122612
  entropy T*S    EENTRO =         0.00000000
  eigenvalues    EBANDS =      1682.27423311
  atomic energy  EATOM  =     10363.97701633
  Solvation  Ediel_sol  =         0.00000000
  ---------------------------------------------------
  free energy    TOTEN  =      1567.05711685 eV

  energy without entropy =     1567.05711685  energy(sigma->0) =     1567.05711685


--------------------------------------------------------------------------------------------------------




--------------------------------------- Iteration      1(   2)  ---------------------------------------


     EDDAV:  cpu time    5.7272: real time    5.7266
 BZINTS: Fermi energy:    5.285410;  384.000000 electrons
         Band energy:-0.667676E+03;  BLOECHL correction:    0.000000
       DOS:  cpu time    0.0110: real time    0.0110
    --------------------------------------------
      LOOP:  cpu time    5.7382: real time    5.7376

 eigenvalue-minimisations  :  3674
 total energy-change (2. order) :-0.2349950E+04  (-0.2210250E+04)
 number of electron     384.0000000 magnetization 
 augmentation part      384.0000000 magnetization 

 Free energy of the ion-electron system (eV)
  ---------------------------------------------------
  alpha Z        PSCENC =      1221.04105685
  Ewald energy   TEWEN  =    -11740.79940454
  -Hartree energ DENC   =     -1051.69857290
  -exchange      EXHF   =         0.00000000
  -V(xc)+E(xc)   XCENC  =      1023.81781246
  PAW double counting   =      6780.51620165    -6712.07122612
  entropy T*S    EENTRO =         0.00000000
  eigenvalues    EBANDS =      -667.67606100
  atomic energy  EATOM  =     10363.97701633
  Solvation  Ediel_sol  =         0.00000000
  ---------------------------------------------------
  free energy    TOTEN  =      -782.89317726 eV

  energy without entropy =     -782.89317726  energy(sigma->0) =     -782.89317726


--------------------------------------------------------------------------------------------------------




--------------------------------------- Iteration      1(   3)  ---------------------------------------


     EDDAV:  cpu time    5.7074: real time    5.7067
 BZINTS: Fermi energy:    3.912364;  384.000000 electrons
         Band energy:-0.815644E+03;  BLOECHL correction:    0.000000
       DOS:  cpu time    0.0120: real time    0.0119
    --------------------------------------------
      LOOP:  cpu time    5.7194: real time    5.7186

 eigenvalue-minimisations  :  3648
 total energy-change (2. order) :-0.1479682E+03  (-0.1455180E+03)
 number of electron     384.0000000 magnetization 
 augmentation part      384.0000000 magnetization 

 Free energy of the ion-electron system (eV)
  ---------------------------------------------------
  alpha Z        PSCENC =      1221.04105685
  Ewald energy   TEWEN  =    -11740.79940454
  -Hartree energ DENC   =     -1051.69857290
  -exchange      EXHF   =         0.00000000
  -V(xc)+E(xc)   XCENC  =      1023.81781246
  PAW double counting   =      6780.51620165    -6712.07122612
  entropy T*S    EENTRO =         0.00000000
  eigenvalues    EBANDS =      -815.64422577
  atomic energy  EATOM  =     10363.97701633
  Solvation  Ediel_sol  =         0.00000000
  ---------------------------------------------------
  free energy    TOTEN  =      -930.86134203 eV

  energy without entropy =     -930.86134203  energy(sigma->0) =     -930.86134203


--------------------------------------------------------------------------------------------------------




--------------------------------------- Iteration      1(   4)  ---------------------------------------


     EDDAV:  cpu time    5.6826: real time    5.6818
 BZINTS: Fermi energy:    3.873476;  384.000000 electrons
         Band energy:-0.819321E+03;  BLOECHL correction:    0.000000
       DOS:  cpu time    0.0119: real time    0.0119
    --------------------------------------------
      LOOP:  cpu time    5.6945: real time    5.6937

 eigenvalue-minimisations  :  3624
 total energy-change (2. order) :-0.3676606E+01  (-0.3653052E+01)
 number of electron     384.0000000 magnetization 
 augmentation part      384.0000000 magnetization 

 Free energy of the ion-electron system (eV)
  ---------------------------------------------------
  alpha Z        PSCENC =      1221.04105685
  Ewald energy   TEWEN  =    -11740.79940454
  -Hartree energ DENC   =     -1051.69857290
  -exchange      EXHF   =         0.00000000
  -V(xc)+E(xc)   XCENC  =      1023.81781246
  PAW double counting   =      6780.51620165    -6712.07122612
  entropy T*S    EENTRO =         0.00000000
  eigenvalues    EBANDS =      -819.32083127
  atomic energy  EATOM  =     10363.97701633
  Solvation  Ediel_sol  =         0.00000000
  ---------------------------------------------------
  free energy    TOTEN  =      -934.53794753 eV

  energy without entropy =     -934.53794753  energy(sigma->0) =     -934.53794753


--------------------------------------------------------------------------------------------------------




--------------------------------------- Iteration      1(   5)  ---------------------------------------


     EDDAV:  cpu time    5.6370: real time    5.6361
 BZINTS: Fermi energy:    3.871676;  384.000000 electrons
         Band energy:-0.819420E+03;  BLOECHL correction:   -0.000000
       DOS:  cpu time    0.0123: real time    0.0123
    CHARGE:  cpu time    1.6233: real time    1.6228
    MIXING:  cpu time    0.0580: real time    0.0580
    --------------------------------------------
      LOOP:  cpu time    7.3306: real time    7.3292

 eigenvalue-minimisations  :  3584
 total energy-change (2. order) :-0.9965366E-01  (-0.9945798E-01)
 number of electron     384.0000003 magnetization 
 augmentation part        2.0882324 magnetization 

 Broyden mixing:
  rms(total) = 0.41955E+01    rms(broyden)= 0.41955E+01
  rms(prec ) = 0.57396E+01
  weight for this iteration     100.00

 Free energy of the ion-electron system (eV)
  ---------------------------------------------------
  alpha Z        PSCENC =      1221.04105685
  Ewald energy   TEWEN  =    -11740.79940454
  -Hartree energ DENC   =     -1051.69857290
  -exchange      EXHF   =         0.00000000
  -V(xc)+E(xc)   XCENC  =      1023.81781246
  PAW double counting   =      6780.51620165    -6712.07122612
  entropy T*S    EENTRO =         0.00000000
  eigenvalues    EBANDS =      -819.42048493
  atomic energy  EATOM  =     10363.97701633
  Solvation  Ediel_sol  =         0.00000000
  ---------------------------------------------------
  free energy    TOTEN  =      -934.63760119 eV

  energy without entropy =     -934.63760119  energy(sigma->0) =     -934.63760119


--------------------------------------------------------------------------------------------------------




--------------------------------------- Iteration      1(   6)  ---------------------------------------


    POTLOK:  cpu time    0.1290: real time    0.1290
    SETDIJ:  cpu time    0.1208: real time    0.1208
    EDDIAG:  cpu time    1.0659: real time    1.0657
  RMM-DIIS:  cpu time    4.5093: real time    4.4759
    ORTHCH:  cpu time    0.0293: real time    0.0293
 BZINTS: Fermi energy:    4.637656;  384.000000 electrons
         Band energy:-0.550086E+03;  BLOECHL correction:   -0.000000
       DOS:  cpu time    0.0123: real time    0.0123
    CHARGE:  cpu time    1.5829: real time    1.5826
    MIXING:  cpu time    0.0657: real time    0.0657
    --------------------------------------------
      LOOP:  cpu time    7.5153: real time    7.4813

 eigenvalue-minimisations  :  3036
 total energy-change (2. order) : 0.4829990E+02  (-0.6700833E+01)
 number of electron     384.0000003 magnetization 
 augmentation part        1.7934986 magnetization 

 Broyden mixing:
  rms(total) = 0.22561E+01    rms(broyden)= 0.22561E+01
  rms(prec ) = 0.28852E+01
  weight for this iteration     100.00

 eigenvalues of (default mixing * dielectric matrix)
  average eigenvalue GAMMA=   1.9172
  1.9172

 Free energy of the ion-electron system (eV)
  ---------------------------------------------------
  alpha Z        PSCENC =      1221.04105685
  Ewald energy   TEWEN  =    -11740.79940454
  -Hartree energ DENC   =     -1282.52775281
  -exchange      EXHF   =         0.00000000
  -V(xc)+E(xc)   XCENC  =      1039.90659090
  PAW double counting   =     15581.66407959   -15519.51280610
  entropy T*S    EENTRO =         0.00000000
  eigenvalues    EBANDS =      -550.08648253
  atomic energy  EATOM  =     10363.97701633
  Solvation  Ediel_sol  =         0.00000000
  ---------------------------------------------------
  free energy    TOTEN  =      -886.33770230 eV

  energy without entropy =     -886.33770230  energy(sigma->0) =     -886.33770230


--------------------------------------------------------------------------------------------------------




--------------------------------------- Iteration      1(   7)  ---------------------------------------


    POTLOK:  cpu time    0.1230: real time    0.1230
    SETDIJ:  cpu time    0.1207: real time    0.1207
    EDDIAG:  cpu time    1.0716: real time    1.0714
  RMM-DIIS:  cpu time    4.5092: real time    4.4740
    ORTHCH:  cpu time    0.0293: real time    0.0293
 BZINTS: Fermi energy:    5.306926;  384.000000 electrons
         Band energy:-0.335329E+03;  BLOECHL correction:   -0.000000
       DOS:  cpu time    0.0123: real time    0.0123
    CHARGE:  cpu time    1.5942: real time    1.5938
    MIXING:  cpu time    0.0662: real time    0.0662
    --------------------------------------------
      LOOP:  cpu time    7.5265: real time    7.4909

 eigenvalue-minimisations  :  3036
 total energy-change (2. order) : 0.8979973E+01  (-0.5810243E+01)
 number of electron     384.0000003 magnetization 
 augmentation part        1.4413774 magnetization 

 Broyden mixing:
  rms(total) = 0.80874E+00    rms(broyden)= 0.80873E+00
  rms(prec ) = 0.96340E+00
  weight for this iteration     100.00

 eigenvalues of (default mixing * dielectric matrix)
  average eigenvalue GAMMA=   2.1928
  2.1928  2.1928

 Free energy of the ion-electron system (eV)
  ---------------------------------------------------
  alpha Z        PSCENC =      1221.04105685
  Ewald energy   TEWEN  =    -11740.79940454
  -Hartree energ DENC   =     -1499.37279826
  -exchange      EXHF   =         0.00000000
  -V(xc)+E(xc)   XCENC  =      1056.12100416
  PAW double counting   =     30239.55652335   -30182.55251637
  entropy T*S    EENTRO =         0.00000000
  eigenvalues    EBANDS =      -335.32861114
  atomic energy  EATOM  =     10363.97701633
  Solvation  Ediel_sol  =         0.00000000
  ---------------------------------------------------
  free energy    TOTEN  =      -877.35772962 eV

  energy without entropy =     -877.35772962  energy(sigma->0) =     -877.35772962


--------------------------------------------------------------------------------------------------------




--------------------------------------- Iteration      1(   8)  ---------------------------------------


    POTLOK:  cpu time    0.1229: real time    0.1231
    SETDIJ:  cpu time    0.1204: real time    0.1204
    EDDIAG:  cpu time    1.0635: real time    1.0633
  RMM-DIIS:  cpu time    4.4842: real time    4.4592
    ORTHCH:  cpu time    0.0292: real time    0.0292
 BZINTS: Fermi energy:    5.303443;  384.000000 electrons
         Band energy:-0.348892E+03;  BLOECHL correction:   -0.000000
       DOS:  cpu time    0.0125: real time    0.0125
    CHARGE:  cpu time    1.6209: real time    1.6205
    MIXING:  cpu time    0.0680: real time    0.0680
    --------------------------------------------
      LOOP:  cpu time    7.5216: real time    7.4962

 eigenvalue-minimisations  :  3036
 total energy-change (2. order) : 0.4115851E+00  (-0.7337840E+00)
 number of electron     384.0000003 magnetization 
 augmentation part        1.4382333 magnetization 

 Broyden mixing:
  rms(total) = 0.25183E+00    rms(broyden)= 0.25183E+00
  rms(prec ) = 0.39950E+00
  weight for this iteration     100.00

 eigenvalues of (default mixing * dielectric matrix)
  average eigenvalue GAMMA=   1.8006
  2.5632  1.4193  1.4193

 Free energy of the ion-electron system (eV)
  ---------------------------------------------------
  alpha Z        PSCENC =      1221.04105685
  Ewald energy   TEWEN  =    -11740.79940454
  -Hartree energ DENC   =     -1485.89732158
  -exchange      EXHF   =         0.00000000
  -V(xc)+E(xc)   XCENC  =      1056.23405402
  PAW double counting   =     36821.62096267   -36764.23001864
  entropy T*S    EENTRO =         0.00000000
  eigenvalues    EBANDS =      -348.89248962
  atomic energy  EATOM  =     10363.97701633
  Solvation  Ediel_sol  =         0.00000000
  ---------------------------------------------------
  free energy    TOTEN  =      -876.94614451 eV

  energy without entropy =     -876.94614451  energy(sigma->0) =     -876.94614451


--------------------------------------------------------------------------------------------------------




--------------------------------------- Iteration      1(   9)  ---------------------------------------


    POTLOK:  cpu time    0.1300: real time    0.1301
    SETDIJ:  cpu time    0.1203: real time    0.1203
    EDDIAG:  cpu time    1.0631: real time    1.0629
  RMM-DIIS:  cpu time    4.5012: real time    4.4682
    ORTHCH:  cpu time    0.0294: real time    0.0294
 BZINTS: Fermi energy:    5.399793;  384.000000 electrons
         Band energy:-0.312096E+03;  BLOECHL correction:    0.000000
       DOS:  cpu time    0.0122: real time    0.0122
    CHARGE:  cpu time    1.5907: real time    1.5902
    MIXING:  cpu time    0.0709: real time    0.0709
    --------------------------------------------
      LOOP:  cpu time    7.5179: real time    7.4841

 eigenvalue-minimisations  :  3036
 total energy-change (2. order) : 0.2699058E+00  (-0.2014832E+00)
 number of electron     384.0000003 magnetization 
 augmentation part        1.4025442 magnetization 

 Broyden mixing:
  rms(total) = 0.96685E-01    rms(broyden)= 0.96683E-01
  rms(prec ) = 0.13598E+00
  weight for this iteration     100.00

 eigenvalues of (default mixing * dielectric matrix)
  average eigenvalue GAMMA=   1.6684
  2.4658  0.9521  1.6280  1.6280

 Free energy of the ion-electron system (eV)
  ---------------------------------------------------
  alpha Z        PSCENC =      1221.04105685
  Ewald energy   TEWEN  =    -11740.79940454
  -Hartree energ DENC   =     -1524.47806509
  -exchange      EXHF   =         0.00000000
  -V(xc)+E(xc)   XCENC  =      1058.94417525
  PAW double counting   =     38028.59006795   -37971.85490979
  entropy T*S    EENTRO =         0.00000000
  eigenvalues    EBANDS =      -312.09617572
  atomic energy  EATOM  =     10363.97701633
  Solvation  Ediel_sol  =         0.00000000
  ---------------------------------------------------
  free energy    TOTEN  =      -876.67623875 eV

  energy without entropy =     -876.67623875  energy(sigma->0) =     -876.67623875


--------------------------------------------------------------------------------------------------------




--------------------------------------- Iteration      1(  10)  ---------------------------------------


    POTLOK:  cpu time    0.1232: real time    0.1233
    SETDIJ:  cpu time    0.1207: real time    0.1207
    EDDIAG:  cpu time    1.0671: real time    1.0669
  RMM-DIIS:  cpu time    4.5594: real time    4.5242
    ORTHCH:  cpu time    0.0294: real time    0.0294
 BZINTS: Fermi energy:    5.383416;  384.000000 electrons
         Band energy:-0.317463E+03;  BLOECHL correction:   -0.000000
       DOS:  cpu time    0.0123: real time    0.0123
    CHARGE:  cpu time    1.5974: real time    1.5969
    MIXING:  cpu time    0.0668: real time    0.0668
    --------------------------------------------
      LOOP:  cpu time    7.5763: real time    7.5405

 eigenvalue-minimisations  :  3065
 total energy-change (2. order) : 0.3655350E-02  (-0.2587300E-01)
 number of electron     384.0000003 magnetization 
 augmentation part        1.3868203 magnetization 

 Broyden mixing:
  rms(total) = 0.64574E-01    rms(broyden)= 0.64574E-01
  rms(prec ) = 0.88044E-01
  weight for this iteration     100.00

 eigenvalues of (default mixing * dielectric matrix)
  average eigenvalue GAMMA=   1.6819
  2.5097  2.4868  1.2086  1.1022  1.1022

 Free energy of the ion-electron system (eV)
  ---------------------------------------------------
  alpha Z        PSCENC =      1221.04105685
  Ewald energy   TEWEN  =    -11740.79940454
  -Hartree energ DENC   =     -1518.97284363
  -exchange      EXHF   =         0.00000000
  -V(xc)+E(xc)   XCENC  =      1058.59880230
  PAW double counting   =     37896.53093953   -37839.58485799
  entropy T*S    EENTRO =         0.00000000
  eigenvalues    EBANDS =      -317.46329226
  atomic energy  EATOM  =     10363.97701633
  Solvation  Ediel_sol  =         0.00000000
  ---------------------------------------------------
  free energy    TOTEN  =      -876.67258340 eV

  energy without entropy =     -876.67258340  energy(sigma->0) =     -876.67258340


--------------------------------------------------------------------------------------------------------




--------------------------------------- Iteration      1(  11)  ---------------------------------------


    POTLOK:  cpu time    0.1228: real time    0.1228
    SETDIJ:  cpu time    0.1204: real time    0.1203
    EDDIAG:  cpu time    1.0685: real time    1.0684
  RMM-DIIS:  cpu time    4.5081: real time    4.4762
    ORTHCH:  cpu time    0.0293: real time    0.0293
 BZINTS: Fermi energy:    5.371316;  384.000000 electrons
         Band energy:-0.321702E+03;  BLOECHL correction:   -0.000000
       DOS:  cpu time    0.0123: real time    0.0123
    CHARGE:  cpu time    1.5931: real time    1.5927
    MIXING:  cpu time    0.0720: real time    0.0719
    --------------------------------------------
      LOOP:  cpu time    7.5264: real time    7.4939

 eigenvalue-minimisations  :  3036
 total energy-change (2. order) : 0.8525526E-02  (-0.6700148E-02)
 number of electron     384.0000003 magnetization 
 augmentation part        1.3855257 magnetization 

 Broyden mixing:
  rms(total) = 0.13457E-01    rms(broyden)= 0.13457E-01
  rms(prec ) = 0.16192E-01
  weight for this iteration     100.00

 eigenvalues of (default mixing * dielectric matrix)
  average eigenvalue GAMMA=   1.6895
  2.7812  2.7812  1.4105  1.4105  0.8769  0.8769

 Free energy of the ion-electron system (eV)
  ---------------------------------------------------
  alpha Z        PSCENC =      1221.04105685
  Ewald energy   TEWEN  =    -11740.79940454
  -Hartree energ DENC   =     -1514.69495171
  -exchange      EXHF   =         0.00000000
  -V(xc)+E(xc)   XCENC  =      1058.36792562
  PAW double counting   =     37996.81359908   -37939.66733909
  entropy T*S    EENTRO =         0.00000000
  eigenvalues    EBANDS =      -321.70196041
  atomic energy  EATOM  =     10363.97701633
  Solvation  Ediel_sol  =         0.00000000
  ---------------------------------------------------
  free energy    TOTEN  =      -876.66405787 eV

  energy without entropy =     -876.66405787  energy(sigma->0) =     -876.66405787


--------------------------------------------------------------------------------------------------------




--------------------------------------- Iteration      1(  12)  ---------------------------------------


    POTLOK:  cpu time    0.1239: real time    0.1239
    SETDIJ:  cpu time    0.1203: real time    0.1203
    EDDIAG:  cpu time    1.0624: real time    1.0623
  RMM-DIIS:  cpu time    4.5675: real time    4.5326
    ORTHCH:  cpu time    0.0293: real time    0.0293
 BZINTS: Fermi energy:    5.368724;  384.000000 electrons
         Band energy:-0.322606E+03;  BLOECHL correction:    0.000000
       DOS:  cpu time    0.0124: real time    0.0124
    CHARGE:  cpu time    1.6039: real time    1.6034
    MIXING:  cpu time    0.0631: real time    0.0631
    --------------------------------------------
      LOOP:  cpu time    7.5827: real time    7.5472

 eigenvalue-minimisations  :  3074
 total energy-change (2. order) :-0.1467713E-02  (-0.9469277E-03)
 number of electron     384.0000003 magnetization 
 augmentation part        1.3857791 magnetization 

 Broyden mixing:
  rms(total) = 0.15281E-01    rms(broyden)= 0.15281E-01
  rms(prec ) = 0.20853E-01
  weight for this iteration     100.00

 eigenvalues of (default mixing * dielectric matrix)
  average eigenvalue GAMMA=   1.6158
  2.7971  2.7971  1.5055  1.5055  0.9356  0.9356  0.8344

 Free energy of the ion-electron system (eV)
  ---------------------------------------------------
  alpha Z        PSCENC =      1221.04105685
  Ewald energy   TEWEN  =    -11740.79940454
  -Hartree energ DENC   =     -1513.78084854
  -exchange      EXHF   =         0.00000000
  -V(xc)+E(xc)   XCENC  =      1058.30918889
  PAW double counting   =     37923.65533380   -37866.46235376
  entropy T*S    EENTRO =         0.00000000
  eigenvalues    EBANDS =      -322.60551462
  atomic energy  EATOM  =     10363.97701633
  Solvation  Ediel_sol  =         0.00000000
  ---------------------------------------------------
  free energy    TOTEN  =      -876.66552558 eV

  energy without entropy =     -876.66552558  energy(sigma->0) =     -876.66552558


--------------------------------------------------------------------------------------------------------




--------------------------------------- Iteration      1(  13)  ---------------------------------------


    POTLOK:  cpu time    0.1279: real time    0.1280
    SETDIJ:  cpu time    0.1200: real time    0.1199
    EDDIAG:  cpu time    1.0689: real time    1.0687
  RMM-DIIS:  cpu time    4.6770: real time    4.6385
    ORTHCH:  cpu time    0.0293: real time    0.0293
 BZINTS: Fermi energy:    5.370306;  384.000000 electrons
         Band energy:-0.321914E+03;  BLOECHL correction:   -0.000000
       DOS:  cpu time    0.0124: real time    0.0123
    CHARGE:  cpu time    1.5932: real time    1.5928
    MIXING:  cpu time    0.0632: real time    0.0631
    --------------------------------------------
      LOOP:  cpu time    7.6918: real time    7.6528

 eigenvalue-minimisations  :  3142
 total energy-change (2. order) : 0.5298084E-03  (-0.2648684E-03)
 number of electron     384.0000003 magnetization 
 augmentation part        1.3841967 magnetization 

 Broyden mixing:
  rms(total) = 0.64749E-02    rms(broyden)= 0.64749E-02
  rms(prec ) = 0.85023E-02
  weight for this iteration     100.00

 eigenvalues of (default mixing * dielectric matrix)
  average eigenvalue GAMMA=   1.6842
  2.8064  2.8064  2.2089  1.4857  1.0582  1.0582  1.0680  0.9813

 Free energy of the ion-electron system (eV)
  ---------------------------------------------------
  alpha Z        PSCENC =      1221.04105685
  Ewald energy   TEWEN  =    -11740.79940454
  -Hartree energ DENC   =     -1514.50343108
  -exchange      EXHF   =         0.00000000
  -V(xc)+E(xc)   XCENC  =      1058.35873675
  PAW double counting   =     37926.81146177   -37869.63647490
  entropy T*S    EENTRO =         0.00000000
  eigenvalues    EBANDS =      -321.91395696
  atomic energy  EATOM  =     10363.97701633
  Solvation  Ediel_sol  =         0.00000000
  ---------------------------------------------------
  free energy    TOTEN  =      -876.66499577 eV

  energy without entropy =     -876.66499577  energy(sigma->0) =     -876.66499577


--------------------------------------------------------------------------------------------------------




--------------------------------------- Iteration      1(  14)  ---------------------------------------


    POTLOK:  cpu time    0.1228: real time    0.1229
    SETDIJ:  cpu time    0.1286: real time    0.1286
    EDDIAG:  cpu time    1.0668: real time    1.0667
  RMM-DIIS:  cpu time    4.5179: real time    4.4820
    ORTHCH:  cpu time    0.0294: real time    0.0294
 BZINTS: Fermi energy:    5.372028;  384.000000 electrons
         Band energy:-0.321465E+03;  BLOECHL correction:    0.000000
       DOS:  cpu time    0.0124: real time    0.0124
    CHARGE:  cpu time    1.5921: real time    1.5916
    MIXING:  cpu time    0.0647: real time    0.0647
    --------------------------------------------
      LOOP:  cpu time    7.5347: real time    7.4981

 eigenvalue-minimisations  :  3042
 total energy-change (2. order) :-0.7778483E-05  (-0.1752165E-03)
 number of electron     384.0000003 magnetization 
 augmentation part        1.3825566 magnetization 

 Broyden mixing:
  rms(total) = 0.28653E-02    rms(broyden)= 0.28651E-02
  rms(prec ) = 0.39844E-02
  weight for this iteration     100.00

 eigenvalues of (default mixing * dielectric matrix)
  average eigenvalue GAMMA=   1.6005
  2.6189  2.6189  2.3438  1.5289  1.4429  1.0248  1.0248  0.9881  0.8134

 Free energy of the ion-electron system (eV)
  ---------------------------------------------------
  alpha Z        PSCENC =      1221.04105685
  Ewald energy   TEWEN  =    -11740.79940454
  -Hartree energ DENC   =     -1514.96705134
  -exchange      EXHF   =         0.00000000
  -V(xc)+E(xc)   XCENC  =      1058.38991630
  PAW double counting   =     37932.07526459   -37874.91729639
  entropy T*S    EENTRO =         0.00000000
  eigenvalues    EBANDS =      -321.46450536
  atomic energy  EATOM  =     10363.97701633
  Solvation  Ediel_sol  =         0.00000000
  ---------------------------------------------------
  free energy    TOTEN  =      -876.66500355 eV

  energy without entropy =     -876.66500355  energy(sigma->0) =     -876.66500355


--------------------------------------------------------------------------------------------------------




--------------------------------------- Iteration      1(  15)  ---------------------------------------


    POTLOK:  cpu time    0.1228: real time    0.1244
    SETDIJ:  cpu time    0.1286: real time    0.1285
    EDDIAG:  cpu time    1.0707: real time    1.0700
  RMM-DIIS:  cpu time    4.5584: real time    4.5207
    ORTHCH:  cpu time    0.0295: real time    0.0295
 BZINTS: Fermi energy:    5.371515;  384.000000 electrons
         Band energy:-0.321541E+03;  BLOECHL correction:   -0.000000
       DOS:  cpu time    0.0122: real time    0.0122
    CHARGE:  cpu time    1.5774: real time    1.5769
    MIXING:  cpu time    0.0654: real time    0.0654
    --------------------------------------------
      LOOP:  cpu time    7.5650: real time    7.5276

 eigenvalue-minimisations  :  3060
 total energy-change (2. order) : 0.1767933E-04  (-0.1501839E-04)
 number of electron     384.0000003 magnetization 
 augmentation part        1.3823446 magnetization 

 Broyden mixing:
  rms(total) = 0.16301E-02    rms(broyden)= 0.16301E-02
  rms(prec ) = 0.22370E-02
  weight for this iteration     100.00

 eigenvalues of (default mixing * dielectric matrix)
  average eigenvalue GAMMA=   1.6070
  2.7554  2.7554  2.3608  1.6168  1.6168  1.1362  1.1362  0.9448  0.8740  0.8740

 Free energy of the ion-electron system (eV)
  ---------------------------------------------------
  alpha Z        PSCENC =      1221.04105685
  Ewald energy   TEWEN  =    -11740.79940454
  -Hartree energ DENC   =     -1514.88476675
  -exchange      EXHF   =         0.00000000
  -V(xc)+E(xc)   XCENC  =      1058.38390873
  PAW double counting   =     37935.98942038   -37878.83136174
  entropy T*S    EENTRO =         0.00000000
  eigenvalues    EBANDS =      -321.54085515
  atomic energy  EATOM  =     10363.97701633
  Solvation  Ediel_sol  =         0.00000000
  ---------------------------------------------------
  free energy    TOTEN  =      -876.66498587 eV

  energy without entropy =     -876.66498587  energy(sigma->0) =     -876.66498587


--------------------------------------------------------------------------------------------------------




--------------------------------------- Iteration      1(  16)  ---------------------------------------


    POTLOK:  cpu time    0.1231: real time    0.1230
    SETDIJ:  cpu time    0.1291: real time    0.1291
    EDDIAG:  cpu time    1.0629: real time    1.0627
  RMM-DIIS:  cpu time    4.4894: real time    4.4621
    ORTHCH:  cpu time    0.0294: real time    0.0294
 BZINTS: Fermi energy:    5.371410;  384.000000 electrons
         Band energy:-0.321596E+03;  BLOECHL correction:   -0.000000
       DOS:  cpu time    0.0122: real time    0.0122
    CHARGE:  cpu time    1.5964: real time    1.5959
    MIXING:  cpu time    0.0697: real time    0.0696
    --------------------------------------------
      LOOP:  cpu time    7.5121: real time    7.4841

 eigenvalue-minimisations  :  3030
 total energy-change (2. order) : 0.1351342E-05  (-0.5184168E-05)
 number of electron     384.0000003 magnetization 
 augmentation part        1.3823671 magnetization 

 Broyden mixing:
  rms(total) = 0.45334E-03    rms(broyden)= 0.45334E-03
  rms(prec ) = 0.59211E-03
  weight for this iteration     100.00

 eigenvalues of (default mixing * dielectric matrix)
  average eigenvalue GAMMA=   1.5671
  2.9313  2.5122  2.2431  1.5757  1.5757  1.2958  1.2958  1.0426  1.0426  0.8994
  0.8243

 Free energy of the ion-electron system (eV)
  ---------------------------------------------------
  alpha Z        PSCENC =      1221.04105685
  Ewald energy   TEWEN  =    -11740.79940454
  -Hartree energ DENC   =     -1514.82799525
  -exchange      EXHF   =         0.00000000
  -V(xc)+E(xc)   XCENC  =      1058.38027321
  PAW double counting   =     37936.56768821   -37879.40763344
  entropy T*S    EENTRO =         0.00000000
  eigenvalues    EBANDS =      -321.59598590
  atomic energy  EATOM  =     10363.97701633
  Solvation  Ediel_sol  =         0.00000000
  ---------------------------------------------------
  free energy    TOTEN  =      -876.66498452 eV

  energy without entropy =     -876.66498452  energy(sigma->0) =     -876.66498452


--------------------------------------------------------------------------------------------------------




--------------------------------------- Iteration      1(  17)  ---------------------------------------


    POTLOK:  cpu time    0.1284: real time    0.1284
    SETDIJ:  cpu time    0.1294: real time    0.1294
    EDDIAG:  cpu time    1.0638: real time    1.0636
  RMM-DIIS:  cpu time    3.9765: real time    3.9513
    ORTHCH:  cpu time    0.0293: real time    0.0293
 BZINTS: Fermi energy:    5.371334;  384.000000 electrons
         Band energy:-0.321585E+03;  BLOECHL correction:   -0.000000
       DOS:  cpu time    0.0123: real time    0.0123
    CHARGE:  cpu time    1.5921: real time    1.5916
    MIXING:  cpu time    0.0673: real time    0.0673
    --------------------------------------------
      LOOP:  cpu time    6.9991: real time    6.9732

 eigenvalue-minimisations  :  2641
 total energy-change (2. order) :-0.1506002E-05  (-0.7823528E-06)
 number of electron     384.0000003 magnetization 
 augmentation part        1.3823618 magnetization 

 Broyden mixing:
  rms(total) = 0.34628E-03    rms(broyden)= 0.34628E-03
[...]
   -.208E+02 -.585E+01 -.179E+02   0.222E+02 0.586E+01 0.185E+02   -.139E+01 -.110E-01 -.638E+00   -.256E-03 0.210E-05 -.111E-03
   -.208E+02 -.585E+01 -.179E+02   0.222E+02 0.586E+01 0.185E+02   -.139E+01 -.110E-01 -.638E+00   -.256E-03 0.210E-05 -.111E-03
   -.208E+02 -.585E+01 -.179E+02   0.222E+02 0.586E+01 0.185E+02   -.139E+01 -.110E-01 -.638E+00   -.256E-03 0.210E-05 -.111E-03
   -.208E+02 -.585E+01 -.179E+02   0.222E+02 0.586E+01 0.185E+02   -.139E+01 -.110E-01 -.638E+00   -.256E-03 0.210E-05 -.111E-03
   -.208E+02 -.585E+01 -.179E+02   0.222E+02 0.586E+01 0.185E+02   -.139E+01 -.110E-01 -.638E+00   -.256E-03 0.210E-05 -.111E-03
   -.208E+02 -.585E+01 -.179E+02   0.222E+02 0.586E+01 0.185E+02   -.139E+01 -.110E-01 -.638E+00   -.256E-03 0.210E-05 -.111E-03
   -.847E+01 -.461E+01 -.467E+02   0.835E+01 0.485E+01 0.512E+02   0.121E+00 -.234E+00 -.453E+01   0.461E-04 -.939E-04 0.143E-03
   -.847E+01 -.461E+01 -.467E+02   0.835E+01 0.485E+01 0.512E+02   0.121E+00 -.234E+00 -.453E+01   0.461E-04 -.939E-04 0.143E-03
   -.847E+01 -.461E+01 -.467E+02   0.835E+01 0.485E+01 0.512E+02   0.121E+00 -.234E+00 -.453E+01   0.461E-04 -.939E-04 0.143E-03
   -.847E+01 -.461E+01 -.467E+02   0.835E+01 0.485E+01 0.512E+02   0.121E+00 -.234E+00 -.453E+01   0.461E-04 -.939E-04 0.143E-03
   -.847E+01 -.461E+01 -.467E+02   0.835E+01 0.485E+01 0.512E+02   0.121E+00 -.234E+00 -.453E+01   0.461E-04 -.939E-04 0.143E-03
   -.847E+01 -.461E+01 -.467E+02   0.835E+01 0.485E+01 0.512E+02   0.121E+00 -.234E+00 -.453E+01   0.461E-04 -.939E-04 0.143E-03
   -.847E+01 -.461E+01 -.467E+02   0.835E+01 0.485E+01 0.512E+02   0.121E+00 -.234E+00 -.453E+01   0.461E-04 -.939E-04 0.143E-03
   -.847E+01 -.461E+01 -.467E+02   0.835E+01 0.485E+01 0.512E+02   0.121E+00 -.234E+00 -.453E+01   0.461E-04 -.939E-04 0.143E-03
   -.180E+02 -.362E+02 -.253E+02   0.190E+02 0.401E+02 0.273E+02   -.998E+00 -.394E+01 -.202E+01   0.115E-03 0.134E-03 -.118E-04
   -.180E+02 -.362E+02 -.253E+02   0.190E+02 0.401E+02 0.273E+02   -.998E+00 -.394E+01 -.202E+01   0.115E-03 0.134E-03 -.118E-04
   -.180E+02 -.362E+02 -.253E+02   0.190E+02 0.401E+02 0.273E+02   -.998E+00 -.394E+01 -.202E+01   0.115E-03 0.134E-03 -.118E-04
   -.180E+02 -.362E+02 -.253E+02   0.190E+02 0.401E+02 0.273E+02   -.998E+00 -.394E+01 -.202E+01   0.115E-03 0.134E-03 -.118E-04
   -.180E+02 -.362E+02 -.253E+02   0.190E+02 0.401E+02 0.273E+02   -.998E+00 -.394E+01 -.202E+01   0.115E-03 0.134E-03 -.118E-04
   -.180E+02 -.362E+02 -.253E+02   0.190E+02 0.401E+02 0.273E+02   -.998E+00 -.394E+01 -.202E+01   0.115E-03 0.134E-03 -.118E-04
   -.180E+02 -.362E+02 -.253E+02   0.190E+02 0.401E+02 0.273E+02   -.998E+00 -.394E+01 -.202E+01   0.115E-03 0.134E-03 -.118E-04
   -.180E+02 -.362E+02 -.253E+02   0.190E+02 0.401E+02 0.273E+02   -.998E+00 -.394E+01 -.202E+01   0.115E-03 0.134E-03 -.118E-04
   0.133E+01 -.227E+01 -.275E+01   -.611E+00 0.199E+01 0.267E+01   -.724E+00 0.277E+00 0.861E-01   0.899E-04 -.702E-04 -.635E-04
   0.133E+01 -.227E+01 -.275E+01   -.611E+00 0.199E+01 0.267E+01   -.724E+00 0.277E+00 0.861E-01   0.899E-04 -.702E-04 -.635E-04
   0.133E+01 -.227E+01 -.275E+01   -.611E+00 0.199E+01 0.267E+01   -.724E+00 0.277E+00 0.861E-01   0.899E-04 -.702E-04 -.635E-04
   0.133E+01 -.227E+01 -.275E+01   -.611E+00 0.199E+01 0.267E+01   -.724E+00 0.277E+00 0.861E-01   0.899E-04 -.702E-04 -.635E-04
   0.133E+01 -.227E+01 -.275E+01   -.611E+00 0.199E+01 0.267E+01   -.724E+00 0.277E+00 0.861E-01   0.899E-04 -.702E-04 -.635E-04
   0.133E+01 -.227E+01 -.275E+01   -.611E+00 0.199E+01 0.267E+01   -.724E+00 0.277E+00 0.861E-01   0.899E-04 -.702E-04 -.635E-04
   0.133E+01 -.227E+01 -.275E+01   -.611E+00 0.199E+01 0.267E+01   -.724E+00 0.277E+00 0.861E-01   0.899E-04 -.702E-04 -.635E-04
   0.133E+01 -.227E+01 -.275E+01   -.611E+00 0.199E+01 0.267E+01   -.724E+00 0.277E+00 0.861E-01   0.899E-04 -.702E-04 -.635E-04
   0.468E+02 0.764E+01 0.321E+02   -.538E+02 -.785E+01 -.355E+02   0.694E+01 0.213E+00 0.341E+01   0.390E-03 0.148E-03 0.392E-03
   0.468E+02 0.764E+01 0.321E+02   -.538E+02 -.785E+01 -.355E+02   0.694E+01 0.213E+00 0.341E+01   0.390E-03 0.148E-03 0.392E-03
   0.468E+02 0.764E+01 0.321E+02   -.538E+02 -.785E+01 -.355E+02   0.694E+01 0.213E+00 0.341E+01   0.390E-03 0.148E-03 0.392E-03
   0.468E+02 0.764E+01 0.321E+02   -.538E+02 -.785E+01 -.355E+02   0.694E+01 0.213E+00 0.341E+01   0.390E-03 0.148E-03 0.392E-03
   0.468E+02 0.764E+01 0.321E+02   -.538E+02 -.785E+01 -.355E+02   0.694E+01 0.213E+00 0.341E+01   0.390E-03 0.148E-03 0.392E-03
   0.468E+02 0.764E+01 0.321E+02   -.538E+02 -.785E+01 -.355E+02   0.694E+01 0.213E+00 0.341E+01   0.390E-03 0.148E-03 0.392E-03
   0.468E+02 0.764E+01 0.321E+02   -.538E+02 -.785E+01 -.355E+02   0.694E+01 0.213E+00 0.341E+01   0.390E-03 0.148E-03 0.392E-03
   0.468E+02 0.764E+01 0.321E+02   -.538E+02 -.785E+01 -.355E+02   0.694E+01 0.213E+00 0.341E+01   0.390E-03 0.148E-03 0.392E-03
   -.141E+02 -.121E+02 -.241E+02   0.159E+02 0.146E+02 0.286E+02   -.182E+01 -.252E+01 -.452E+01   0.150E-04 0.185E-05 0.941E-05
   -.141E+02 -.121E+02 -.241E+02   0.159E+02 0.146E+02 0.286E+02   -.182E+01 -.252E+01 -.452E+01   0.150E-04 0.185E-05 0.941E-05
   -.141E+02 -.121E+02 -.241E+02   0.159E+02 0.146E+02 0.286E+02   -.182E+01 -.252E+01 -.452E+01   0.150E-04 0.185E-05 0.941E-05
   -.141E+02 -.121E+02 -.241E+02   0.159E+02 0.146E+02 0.286E+02   -.182E+01 -.252E+01 -.452E+01   0.150E-04 0.185E-05 0.941E-05
   -.141E+02 -.121E+02 -.241E+02   0.159E+02 0.146E+02 0.286E+02   -.182E+01 -.252E+01 -.452E+01   0.150E-04 0.185E-05 0.941E-05
   -.141E+02 -.121E+02 -.241E+02   0.159E+02 0.146E+02 0.286E+02   -.182E+01 -.252E+01 -.452E+01   0.150E-04 0.185E-05 0.941E-05
   -.141E+02 -.121E+02 -.241E+02   0.159E+02 0.146E+02 0.286E+02   -.182E+01 -.252E+01 -.452E+01   0.150E-04 0.185E-05 0.941E-05
   -.141E+02 -.121E+02 -.241E+02   0.159E+02 0.146E+02 0.286E+02   -.182E+01 -.252E+01 -.452E+01   0.150E-04 0.185E-05 0.941E-05
   0.194E+02 0.120E+02 0.263E+02   -.217E+02 -.148E+02 -.316E+02   0.236E+01 0.286E+01 0.527E+01   0.657E-03 -.379E-03 -.265E-03
   0.194E+02 0.120E+02 0.263E+02   -.217E+02 -.148E+02 -.316E+02   0.236E+01 0.286E+01 0.527E+01   0.657E-03 -.379E-03 -.265E-03
   0.194E+02 0.120E+02 0.263E+02   -.217E+02 -.148E+02 -.316E+02   0.236E+01 0.286E+01 0.527E+01   0.657E-03 -.379E-03 -.265E-03
   0.194E+02 0.120E+02 0.263E+02   -.217E+02 -.148E+02 -.316E+02   0.236E+01 0.286E+01 0.527E+01   0.657E-03 -.379E-03 -.265E-03
   0.194E+02 0.120E+02 0.263E+02   -.217E+02 -.148E+02 -.316E+02   0.236E+01 0.286E+01 0.527E+01   0.657E-03 -.379E-03 -.265E-03
   0.194E+02 0.120E+02 0.263E+02   -.217E+02 -.148E+02 -.316E+02   0.236E+01 0.286E+01 0.527E+01   0.657E-03 -.379E-03 -.265E-03
   0.194E+02 0.120E+02 0.263E+02   -.217E+02 -.148E+02 -.316E+02   0.236E+01 0.286E+01 0.527E+01   0.657E-03 -.379E-03 -.265E-03
   0.194E+02 0.120E+02 0.263E+02   -.217E+02 -.148E+02 -.316E+02   0.236E+01 0.286E+01 0.527E+01   0.657E-03 -.379E-03 -.265E-03
 -----------------------------------------------------------------------------------------------
   -.535E+01 -.889E+01 -.155E+02   -.711E-13 -.444E-12 -.561E-12   0.537E+01 0.889E+01 0.155E+02   0.600E-02 -.180E-02 0.178E-04
 
 
 POSITION                                       TOTAL-FORCE (eV/Angst)
 -----------------------------------------------------------------------------------
      2.45974      3.69696      6.54747         0.000142      0.000648      0.001019
      2.41767      3.74867     11.70414         0.000142      0.000648      0.001019
      3.76506      8.20716      8.68052         0.000142      0.000648      0.001019
      3.72298      8.25887     13.83719         0.000142      0.000648      0.001019
      7.01860      3.71748      8.60926         0.000142      0.000648      0.001019
      6.97652      3.76919     13.76592         0.000142      0.000648      0.001019
      8.32391      8.22768     10.74230         0.000142      0.000648      0.001019
      8.28184      8.27939     15.89897         0.000142      0.000648      0.001019
      4.69281      3.65151      4.99631         0.000615     -0.000442      0.000663
      4.65074      3.70322     10.15298         0.000615     -0.000442      0.000663
      5.99813      8.16171      7.12936         0.000615     -0.000442      0.000663
      5.95605      8.21342     12.28603         0.000615     -0.000442      0.000663
      9.25167      3.67203      7.05809         0.000615     -0.000442      0.000663
      9.20960      3.72374     12.21476         0.000615     -0.000442      0.000663
     10.55699      8.18223      9.19114         0.000615     -0.000442      0.000663
     10.51491      8.23394     14.34781         0.000615     -0.000442      0.000663
      4.03770      1.48376      6.46642         0.000890      0.000467      0.000046
      3.99563      1.53547     11.62309         0.000890      0.000467      0.000046
      5.34302      5.99396      8.59947         0.000890      0.000467      0.000046
      5.30094      6.04567     13.75613         0.000890      0.000467      0.000046
      8.59656      1.50428      8.52820         0.000890      0.000467      0.000046
      8.55449      1.55599     13.68487         0.000890      0.000467      0.000046
      9.90188      6.01448     10.66125         0.000890      0.000467      0.000046
      9.85980      6.06619     15.81792         0.000890      0.000467      0.000046
      3.36319      0.88797      2.80807        -0.000821      0.000445      0.000290
      3.32112      0.93968      7.96474        -0.000821      0.000445      0.000290
      4.66851      5.39817      4.94112        -0.000821      0.000445      0.000290
      4.62644      5.44988     10.09778        -0.000821      0.000445      0.000290
      7.92205      0.90849      4.86985        -0.000821      0.000445      0.000290
      7.87998      0.96020     10.02652        -0.000821      0.000445      0.000290
      9.22737      5.41869      7.00290        -0.000821      0.000445      0.000290
      9.18529      5.47040     12.15957        -0.000821      0.000445      0.000290
      1.13184      0.92255      4.36839        -0.001178     -0.000686      0.000173
      1.08976      0.97427      9.52506        -0.001178     -0.000686      0.000173
      2.43715      5.43276      6.50144        -0.001178     -0.000686      0.000173
      2.39508      5.48447     11.65810        -0.001178     -0.000686      0.000173
      5.69070      0.94307      6.43017        -0.001178     -0.000686      0.000173
      5.64862      0.99479     11.58684        -0.001178     -0.000686      0.000173
      6.99601      5.45328      8.56322        -0.001178     -0.000686      0.000173
      6.95394      5.50499     13.71989        -0.001178     -0.000686      0.000173
      1.79340      3.11165      2.88381        -0.000726      0.000809     -0.000841
      1.75132      3.16336      8.04047        -0.000726      0.000809     -0.000841
      3.09871      7.62185      5.01685        -0.000726      0.000809     -0.000841
      3.05664      7.67356     10.17352        -0.000726      0.000809     -0.000841
      6.35226      3.13217      4.94559        -0.000726      0.000809     -0.000841
      6.31018      3.18388     10.10226        -0.000726      0.000809     -0.000841
      7.65757      7.64237      7.07864        -0.000726      0.000809     -0.000841
      7.61550      7.69408     12.23531        -0.000726      0.000809     -0.000841
      5.77457      4.54893      7.63862         0.000326     -0.000269     -0.000743
      5.73249      4.60064     12.79529         0.000326     -0.000269     -0.000743
      7.07988      9.05913      9.77167         0.000326     -0.000269     -0.000743
      7.03781      9.11085     14.92834         0.000326     -0.000269     -0.000743
     10.33343      4.56945      9.70040         0.000326     -0.000269     -0.000743
     10.29135      4.62116     14.85707         0.000326     -0.000269     -0.000743
     11.63874      9.07965     11.83345         0.000326     -0.000269     -0.000743
     11.59667      9.13137     16.99012         0.000326     -0.000269     -0.000743
      5.34061      3.11298      8.61244         0.000196     -0.000699     -0.000452
      5.29854      3.16469     13.76911         0.000196     -0.000699     -0.000452
      6.64593      7.62319     10.74549         0.000196     -0.000699     -0.000452
      6.60385      7.67490     15.90216         0.000196     -0.000699     -0.000452
      9.89947      3.13350     10.67422         0.000196     -0.000699     -0.000452
      9.85740      3.18521     15.83089         0.000196     -0.000699     -0.000452
     11.20479      7.64371     12.80727         0.000196     -0.000699     -0.000452
     11.16271      7.69542     17.96394         0.000196     -0.000699     -0.000452
      1.56614      0.03909      0.75555         0.000186     -0.000319     -0.000388
      1.52406      0.09081      5.91222         0.000186     -0.000319     -0.000388
      2.87145      4.54930      2.88860         0.000186     -0.000319     -0.000388
      2.82938      4.60101      8.04527         0.000186     -0.000319     -0.000388
      6.12500      0.05961      2.81733         0.000186     -0.000319     -0.000388
      6.08292      0.11133      7.97400         0.000186     -0.000319     -0.000388
      7.43031      4.56982      4.95038         0.000186     -0.000319     -0.000388
      7.38824      4.62153     10.10705         0.000186     -0.000319     -0.000388
      0.03435      0.03837      1.72925        -0.000151     -0.000266      0.000211
     -0.00773      0.09008      6.88592        -0.000151     -0.000266      0.000211
      1.33966      4.54857      3.86230        -0.000151     -0.000266      0.000211
      1.29759      4.60029      9.01897        -0.000151     -0.000266      0.000211
      4.59321      0.05889      3.79103        -0.000151     -0.000266      0.000211
      4.55113      0.11060      8.94770        -0.000151     -0.000266      0.000211
      5.89852      4.56909      5.92408        -0.000151     -0.000266      0.000211
      5.85645      4.62081     11.08075        -0.000151     -0.000266      0.000211
      0.47229      1.48750      0.74649         0.000026      0.000321     -0.000186
      0.43021      1.53921      5.90316         0.000026      0.000321     -0.000186
      1.77760      5.99770      2.87954         0.000026      0.000321     -0.000186
      1.73553      6.04942      8.03621         0.000026      0.000321     -0.000186
      5.03114      1.50802      2.80828         0.000026      0.000321     -0.000186
      4.98907      1.55973      7.96494         0.000026      0.000321     -0.000186
      6.33646      6.01822      4.94132         0.000026      0.000321     -0.000186
      6.29438      6.06994     10.09799         0.000026      0.000321     -0.000186
      2.86995      2.28318      4.64558        -0.001171      0.000166     -0.000276
      2.82787      2.33489      9.80224        -0.001171      0.000166     -0.000276
      4.17526      6.79338      6.77862        -0.001171      0.000166     -0.000276
      4.13319      6.84509     11.93529        -0.001171      0.000166     -0.000276
      7.42881      2.30370      6.70736        -0.001171      0.000166     -0.000276
      7.38673      2.35541     11.86403        -0.001171      0.000166     -0.000276
      8.73412      6.81390      8.84041        -0.001171      0.000166     -0.000276
      8.69205      6.86561     13.99707        -0.001171      0.000166     -0.000276
      4.35114      4.55296      8.65254         0.001738      0.000095      0.000914
      4.30906      4.60467     13.80920         0.001738      0.000095      0.000914
      5.65645      9.06316     10.78558         0.001738      0.000095      0.000914
      5.61438      9.11487     15.94225         0.001738      0.000095      0.000914
      8.91000      4.57348     10.71432         0.001738      0.000095      0.000914
      8.86792      4.62519     15.87099         0.001738      0.000095      0.000914
     10.21531      9.08368     12.84737         0.001738      0.000095      0.000914
     10.17324      9.13539     18.00403         0.001738      0.000095      0.000914
      3.55334      2.84208      5.77425         0.000134      0.000256      0.000437
      3.51127      2.89379     10.93091         0.000134      0.000256      0.000437
      4.85866      7.35229      7.90729         0.000134      0.000256      0.000437
      4.81658      7.40400     13.06396         0.000134      0.000256      0.000437
      8.11220      2.86260      7.83603         0.000134      0.000256      0.000437
      8.07012      2.91431     12.99270         0.000134      0.000256      0.000437
      9.41751      7.37281      9.96908         0.000134      0.000256      0.000437
      9.37544      7.42452     15.12574         0.000134      0.000256      0.000437
      2.22467      1.70880      3.51108        -0.000206     -0.000526     -0.000867
      2.18259      1.76051      8.66774        -0.000206     -0.000526     -0.000867
      3.52998      6.21900      5.64412        -0.000206     -0.000526     -0.000867
      3.48791      6.27072     10.80079        -0.000206     -0.000526     -0.000867
      6.78353      1.72932      5.57286        -0.000206     -0.000526     -0.000867
      6.74145      1.78103     10.72953        -0.000206     -0.000526     -0.000867
      8.08884      6.23952      7.70591        -0.000206     -0.000526     -0.000867
      8.04677      6.29124     12.86257        -0.000206     -0.000526     -0.000867
 -----------------------------------------------------------------------------------
    total drift:                                0.028791     -0.006605      0.003083


--------------------------------------------------------------------------------------------------------



  FREE ENERGIE OF THE ION-ELECTRON SYSTEM (eV)
  ---------------------------------------------------
  free  energy   TOTEN  =      -876.84017194 eV

  energy  without entropy=     -876.84017194  energy(sigma->0) =     -876.84017194
 
 d Force = 0.1180016E-05[-0.105E-06, 0.247E-05]  d Energy = 0.8915410E-06 0.288E-06
 d Force = 0.1195114E-01[ 0.119E-01, 0.120E-01]  d Ewald  = 0.1191868E-01 0.325E-04


--------------------------------------------------------------------------------------------------------


    POTLOK:  cpu time    0.2614: real time    0.2614


--------------------------------------------------------------------------------------------------------




--------------------------------------------------------------------------------------------------------


  
 reached required accuracy - stopping structural energy minimisation
     LOOP+:  cpu time   23.3079: real time   23.2946
    4ORBIT:  cpu time    0.0000: real time    0.0000
 BZINTS: Fermi energy:    5.379398;  384.000000 electrons
         Band energy:-0.317418E+03;  BLOECHL correction:   -0.000000

 total amount of memory used by VASP MPI-rank0  1531960. kBytes
=======================================================================

   base      :      30000. kBytes
   nonlr-proj:      53417. kBytes
   fftplans  :     200616. kBytes
   grid      :     358473. kBytes
   one-center:        368. kBytes
   wavefun   :     889086. kBytes
 
  
  
 General timing and accounting informations for this job:
 ========================================================
  
                  Total CPU time used (sec):     1351.678
                            User time (sec):     1115.919
                          System time (sec):      235.759
                         Elapsed time (sec):     1351.715
  
                   Maximum memory used (kb):     3558612.
                   Average memory used (kb):          N/A
  
                          Minor page faults:     18780049
                          Major page faults:            0
                 Voluntary context switches:       287158
