<?xml version="1.0" encoding="ISO-8859-1"?>
<modeling>
 <generator>
  <i name="program" type="string">vasp </i>
  <i name="version" type="string">6.2.0  </i>
  <i name="subversion" type="string">18Jan21 (build Feb 25 2021 07:51:20) complex                          parallel </i>
  <i name="platform" type="string">LinuxPGI </i>
  <i name="date" type="string">2022 04 13 </i>
  <i name="time" type="string">12:37:03 </i>
 </generator>
 <incar>
  <i type="string" name="PREC">Accurate</i>
  <i type="string" name="ALGO">Fast</i>
  <i type="int" name="IBRION">     2</i>
  <i name="EDIFF">      0.00000100</i>
  <i type="int" name="NSW">   300</i>
  <i type="int" name="ISIF">     4</i>
  <i name="ENCUT">    700.00000000</i>
  <i type="string" name="LREAL">Auto</i>
  <i type="int" name="ISMEAR">    -5</i>
  <i name="SIGMA">      0.05000000</i>
  <i type="logical" name="LWAVE"> F  </i>
 </incar>
 <primitive_cell>
  <structure name="primitive_cell" >
   <crystal>
    <varray name="basis" >
     <v>      -1.32485350      -4.50382450      -2.12127650 </v>
     <v>       0.02546250      -0.03565300      -5.15146200 </v>
     <v>       4.57287850       0.02484100       2.07440250 </v>
    </varray>
    <i name="volume">    105.91578594 </i>
    <varray name="rec_basis" >
     <v>       0.00050992      -0.22291134       0.00154528 </v>
     <v>       0.08771167       0.06563762      -0.19414039 </v>
     <v>       0.21833998      -0.06494731       0.00152870 </v>
    </varray>
   </crystal>
   <varray name="positions" >
    <v>       0.19248400       0.19248400       0.31584600 </v>
    <v>       0.19532400       0.68556000       0.80326400 </v>
    <v>       0.68556000       0.19532400       0.80326400 </v>
    <v>       0.80667000       0.80667000       0.68273200 </v>
    <v>       0.80632800       0.31257800       0.19740000 </v>
    <v>       0.31257800       0.80632800       0.19740000 </v>
    <v>       0.00520200       0.32640400       0.98889400 </v>
    <v>       0.32640400       0.00520200       0.98889400 </v>
    <v>       0.99410000       0.99410000       0.34159000 </v>
    <v>       0.99449000       0.67127600       0.00695000 </v>
    <v>       0.67127600       0.99449000       0.00695000 </v>
    <v>       0.50198200       0.50198200       0.49599000 </v>
    <v>       0.00414400       0.00414400       0.67667200 </v>
    <v>       0.38112600       0.38112600       0.61217600 </v>
    <v>       0.62233000       0.62233000       0.38197800 </v>
   </varray>
  </structure>
  <varray name="primitive_index" >
   <v type="int" >        1 </v>
   <v type="int" >        9 </v>
   <v type="int" >       17 </v>
   <v type="int" >       28 </v>
   <v type="int" >       35 </v>
   <v type="int" >       42 </v>
   <v type="int" >       53 </v>
   <v type="int" >       61 </v>
   <v type="int" >       68 </v>
   <v type="int" >       75 </v>
   <v type="int" >       82 </v>
   <v type="int" >       89 </v>
   <v type="int" >       97 </v>
   <v type="int" >      105 </v>
   <v type="int" >      113 </v>
  </varray>
 </primitive_cell>
 <kpoints>
  <generation param="Gamma">
   <v type="int" name="divisions">       2        2        2 </v>
   <v name="usershift">      0.00000000       0.00000000       0.00000000 </v>
   <v name="genvec1">      0.50000000      -0.00000000      -0.00000000 </v>
   <v name="genvec2">     -0.00000000       0.50000000       0.00000000 </v>
   <v name="genvec3">      0.00000000       0.00000000       0.50000000 </v>
   <v name="shift">      0.00000000       0.00000000       0.00000000 </v>
  </generation>
  <varray name="kpointlist" >
   <v>       0.00000000       0.00000000       0.00000000 </v>
   <v>       0.50000000       0.00000000       0.00000000 </v>
   <v>       0.00000000       0.50000000       0.00000000 </v>
   <v>       0.50000000       0.50000000       0.00000000 </v>
   <v>       0.00000000       0.50000000       0.50000000 </v>
   <v>       0.50000000       0.50000000       0.50000000 </v>
  </varray>
  <varray name="weights" >
   <v>       0.12500000 </v>
   <v>       0.12500000 </v>
   <v>       0.25000000 </v>
   <v>       0.25000000 </v>
   <v>       0.12500000 </v>
   <v>       0.12500000 </v>
  </varray>
  <varray name="tetrahedronlist"  type="int" >
   <v type="int" >        4        1        3        4        6 </v>
   <v type="int" >        4        1        2        4        6 </v>
   <v type="int" >        4        1        3        5        6 </v>
   <v type="int" >        4        2        3        4        5 </v>
   <v type="int" >        4        1        2        3        5 </v>
   <v type="int" >        4        2        4        5        6 </v>
   <v type="int" >        4        1        2        3        4 </v>
   <v type="int" >        4        2        3        4        4 </v>
   <v type="int" >        4        3        4        4        6 </v>
   <v type="int" >        4        1        3        3        4 </v>
   <v type="int" >        4        3        3        4        5 </v>
   <v type="int" >        4        3        4        5        6 </v>
  </varray>
  <i name="volumeweight">      0.02083333 </i>
 </kpoints>
 <parameters>
  <separator name="general" >
   <i type="string" name="SYSTEM">unknown system</i>
   <i type="logical" name="LCOMPAT"> F  </i>
  </separator>
  <separator name="electronic" >
   <i type="string" name="PREC">accura</i>
   <i name="ENMAX">    700.00000000</i>
   <i name="ENAUG">    644.87300000</i>
   <i name="EDIFF">      0.00000100</i>
   <i type="int" name="IALGO">    68</i>
   <i type="int" name="IWAVPR">    11</i>
   <i type="int" name="NBANDS">   253</i>
   <i type="int" name="NBANDSLOW">    -1</i>
   <i type="int" name="NBANDSHIGH">    -1</i>
   <i name="NELECT">    384.00000000</i>
   <i type="int" name="TURBO">     0</i>
   <i type="int" name="IRESTART">     0</i>
   <i type="int" name="NREBOOT">     0</i>
   <i type="int" name="NMIN">     0</i>
   <i name="EREF">      0.00000000</i>
   <separator name="electronic smearing" >
    <i type="int" name="ISMEAR">    -5</i>
    <i name="SIGMA">      0.05000000</i>
    <i name="KSPACING">      0.50000000</i>
    <i type="logical" name="KGAMMA"> T  </i>
    <i type="logical" name="KBLOWUP"> T  </i>
   </separator>
   <separator name="electronic projectors" >
    <i type="logical" name="LREAL"> T  </i>
    <v name="ROPT">     -0.00025000     -0.00025000</v>
    <i type="int" name="LMAXPAW">  -100</i>
    <i type="int" name="LMAXMIX">     2</i>
    <i type="logical" name="NLSPLINE"> F  </i>
   </separator>
   <separator name="electronic startup" >
    <i type="int" name="ISTART">     0</i>
    <i type="int" name="ICHARG">     2</i>
    <i type="int" name="INIWAV">     1</i>
   </separator>
   <separator name="electronic spin" >
    <i type="int" name="ISPIN">     1</i>
    <i type="logical" name="LNONCOLLINEAR"> F  </i>
    <v name="MAGMOM">      1.00000000      1.00000000      1.00000000      1.00000000      1.00000000      1.00000000      1.00000000      1.00000000      1.00000000      1.00000000      1.00000000      1.00000000      1.00000000      1.00000000      1.00000000      1.00000000      1.00000000      1.00000000      1.00000000      1.00000000
      1.00000000      1.00000000      1.00000000      1.00000000      1.00000000      1.00000000      1.00000000      1.00000000      1.00000000      1.00000000      1.00000000      1.00000000      1.00000000      1.00000000      1.00000000      1.00000000      1.00000000      1.00000000      1.00000000      1.00000000
      1.00000000      1.00000000      1.00000000      1.00000000      1.00000000      1.00000000      1.00000000      1.00000000      1.00000000      1.00000000      1.00000000      1.00000000      1.00000000      1.00000000      1.00000000      1.00000000      1.00000000      1.00000000      1.00000000      1.00000000
      1.00000000      1.00000000      1.00000000      1.00000000      1.00000000      1.00000000      1.00000000      1.00000000      1.00000000      1.00000000      1.00000000      1.00000000      1.00000000      1.00000000      1.00000000      1.00000000      1.00000000      1.00000000      1.00000000      1.00000000
      1.00000000      1.00000000      1.00000000      1.00000000      1.00000000      1.00000000      1.00000000      1.00000000      1.00000000      1.00000000      1.00000000      1.00000000      1.00000000      1.00000000      1.00000000      1.00000000      1.00000000      1.00000000      1.00000000      1.00000000
      1.00000000      1.00000000      1.00000000      1.00000000      1.00000000      1.00000000      1.00000000      1.00000000      1.00000000      1.00000000      1.00000000      1.00000000      1.00000000      1.00000000      1.00000000      1.00000000      1.00000000      1.00000000      1.00000000      1.00000000
</v>
    <i name="NUPDOWN">     -1.00000000</i>
    <i type="logical" name="LSORBIT"> F  </i>
    <v name="SAXIS">      0.00000000      0.00000000      1.00000000</v>
    <i type="logical" name="LSPIRAL"> F  </i>
    <v name="QSPIRAL">      0.00000000      0.00000000      0.00000000</v>
    <i type="logical" name="LZEROZ"> F  </i>
   </separator>
   <separator name="electronic exchange-correlation" >
    <i type="logical" name="LASPH"> F  </i>
    <i type="logical" name="LMETAGGA"> F  </i>
   </separator>
   <separator name="electronic convergence" >
    <i type="int" name="NELM">    60</i>
    <i type="int" name="NELMDL">    -5</i>
    <i type="int" name="NELMIN">     2</i>
    <i name="ENINI">    700.00000000</i>
    <separator name="electronic convergence detail" >
     <i type="logical" name="LDIAG"> T  </i>
     <i type="logical" name="LSUBROT"> F  </i>
     <i name="WEIMIN">      0.00100000</i>
     <i name="EBREAK">      0.00000000</i>
     <i name="DEPER">      0.30000000</i>
     <i type="int" name="NRMM">     4</i>
     <i name="TIME">      0.40000000</i>
    </separator>
   </separator>
   <separator name="electronic mixer" >
    <i name="AMIX">      0.40000000</i>
    <i name="BMIX">      1.00000000</i>
    <i name="AMIN">      0.10000000</i>
    <i name="AMIX_MAG">      1.60000000</i>
    <i name="BMIX_MAG">      1.00000000</i>
    <separator name="electronic mixer details" >
     <i type="int" name="IMIX">     4</i>
     <i type="logical" name="MIXFIRST"> F  </i>
     <i type="int" name="MAXMIX">   -45</i>
     <i name="WC">    100.00000000</i>
     <i type="int" name="INIMIX">     1</i>
     <i type="int" name="MIXPRE">     1</i>
     <i type="int" name="MREMOVE">     5</i>
    </separator>
   </separator>
   <separator name="electronic dipolcorrection" >
    <i type="logical" name="LDIPOL"> F  </i>
    <i type="logical" name="LMONO"> F  </i>
    <i type="int" name="IDIPOL">     0</i>
    <i name="EPSILON">      1.00000000</i>
    <v name="DIPOL">   -100.00000000   -100.00000000   -100.00000000</v>
    <i name="EFIELD">      0.00000000</i>
   </separator>
  </separator>
  <separator name="grids" >
   <i type="int" name="NGX">    90</i>
   <i type="int" name="NGY">    90</i>
   <i type="int" name="NGZ">    90</i>
   <i type="int" name="NGXF">   180</i>
   <i type="int" name="NGYF">   180</i>
   <i type="int" name="NGZF">   180</i>
   <i type="logical" name="ADDGRID"> F  </i>
  </separator>
  <separator name="ionic" >
   <i type="int" name="NSW">   300</i>
   <i type="int" name="IBRION">     2</i>
   <i type="int" name="MDALGO">     0</i>
   <i type="int" name="ISIF">     4</i>
   <i name="PSTRESS">      0.00000000</i>
   <i name="EDIFFG">      0.00001000</i>
   <i type="int" name="NFREE">     1</i>
   <i name="POTIM">      0.50000000</i>
   <i name="SMASS">     -3.00000000</i>
   <i name="SCALEE">      1.00000000</i>
  </separator>
  <separator name="ionic md" >
   <i name="TEBEG">      0.00010000</i>
   <i name="TEEND">      0.00010000</i>
   <i type="int" name="NBLOCK">     1</i>
   <i type="int" name="KBLOCK">   300</i>
   <i type="int" name="NPACO">   256</i>
   <i name="APACO">     16.00000000</i>
  </separator>
  <separator name="symmetry" >
   <i type="int" name="ISYM">     2</i>
   <i name="SYMPREC">      0.00001000</i>
  </separator>
  <separator name="dos" >
   <i type="int" name="LORBIT">     0</i>
   <v name="RWIGS">     -1.00000000     -1.00000000</v>
   <i type="int" name="NEDOS">   301</i>
   <i name="EMIN">     10.00000000</i>
   <i name="EMAX">    -10.00000000</i>
   <i name="EFERMI">      0.00000000</i>
  </separator>
  <separator name="writing" >
   <i type="int" name="NWRITE">     2</i>
   <i type="logical" name="LWAVE"> F  </i>
   <i type="logical" name="LDOWNSAMPLE"> F  </i>
   <i type="logical" name="LCHARG"> T  </i>
   <i type="logical" name="LPARD"> F  </i>
   <i type="logical" name="LVTOT"> F  </i>
   <i type="logical" name="LVHAR"> F  </i>
   <i type="logical" name="LELF"> F  </i>
   <i type="logical" name="LOPTICS"> F  </i>
   <v name="STM">      0.00000000      0.00000000      0.00000000      0.00000000      0.00000000      0.00000000      0.00000000</v>
  </separator>
  <separator name="performance" >
   <i type="int" name="NPAR">     1</i>
   <i type="int" name="NSIM">     4</i>
   <i type="int" name="NBLK">    -1</i>
   <i type="logical" name="LPLANE"> T  </i>
   <i type="logical" name="LSCALAPACK"> T  </i>
   <i type="logical" name="LSCAAWARE"> F  </i>
   <i type="logical" name="LSCALU"> F  </i>
   <i type="logical" name="LASYNC"> F  </i>
   <i type="logical" name="LORBITALREAL"> F  </i>
  </separator>
  <separator name="miscellaneous" >
   <i type="int" name="IDIOT">     3</i>
   <i type="int" name="PHON_NSTRUCT">    -1</i>
   <i type="logical" name="LMUSIC"> F  </i>
   <v name="POMASS">     10.81100000     12.01100000</v>
   <v name="DARWINR">      0.00000000      0.00000000</v>
   <v name="DARWINV">      1.00000000      1.00000000</v>
   <i type="logical" name="LCORR"> T  </i>
  </separator>
  <i type="logical" name="GGA_COMPAT"> T  </i>
  <i type="logical" name="LBERRY"> F  </i>
  <i type="int" name="ICORELEVEL">     0</i>
  <i type="logical" name="LDAU"> F  </i>
  <i type="int" name="I_CONSTRAINED_M">     0</i>
  <separator name="electronic exchange-correlation" >
   <i type="string" name="GGA">--</i>
   <i type="int" name="VOSKOWN">     0</i>
   <i type="logical" name="LHFCALC"> F  </i>
   <i type="string" name="PRECFOCK"></i>
   <i type="logical" name="LSYMGRAD"> F  </i>
   <i type="logical" name="LHFONE"> F  </i>
   <i type="logical" name="LRHFCALC"> F  </i>
   <i type="logical" name="LTHOMAS"> F  </i>
   <i type="logical" name="LMODELHF"> F  </i>
   <i type="logical" name="LFOCKACE"> F  </i>
   <i name="ENCUT4O">     -1.00000000</i>
   <i type="int" name="EXXOEP">     0</i>
   <i type="int" name="FOURORBIT">     0</i>
   <i name="AEXX">      0.00000000</i>
   <i name="HFALPHA">      0.00000000</i>
   <i name="MCALPHA">      0.00000000</i>
   <i name="ALDAX">      1.00000000</i>
   <i name="AGGAX">      1.00000000</i>
   <i name="ALDAC">      1.00000000</i>
   <i name="AGGAC">      1.00000000</i>
   <i type="int" name="NKREDX">     1</i>
   <i type="int" name="NKREDY">     1</i>
   <i type="int" name="NKREDZ">     1</i>
   <i type="logical" name="SHIFTRED"> F  </i>
   <i type="logical" name="ODDONLY"> F  </i>
   <i type="logical" name="EVENONLY"> F  </i>
   <i type="int" name="LMAXFOCK">     0</i>
   <i type="int" name="NMAXFOCKAE">     0</i>
   <i type="logical" name="LFOCKAEDFT"> F  </i>
   <i name="HFSCREEN">      0.00000000</i>
   <i name="HFSCREENC">      0.00000000</i>
   <i type="int" name="NBANDSGWLOW">     0</i>
  </separator>
  <separator name="vdW DFT" >
   <i type="logical" name="LUSE_VDW"> F  </i>
   <i name="Zab_VDW">     -0.84910000</i>
   <i name="PARAM1">      0.12340000</i>
   <i name="PARAM2">      1.00000000</i>
   <i name="PARAM3">      0.00000000</i>
  </separator>
  <separator name="model GW" >
   <i type="int" name="MODEL_GW">     0</i>
   <i name="MODEL_EPS0">      4.23663144</i>
   <i name="MODEL_ALPHA">      1.00000000</i>
  </separator>
  <separator name="linear response parameters" >
   <i type="logical" name="LEPSILON"> F  </i>
   <i type="logical" name="LRPA"> F  </i>
   <i type="logical" name="LNABLA"> F  </i>
   <i type="logical" name="LVEL"> F  </i>
   <i type="int" name="KINTER">     0</i>
   <i name="CSHIFT">      0.10000000</i>
   <i name="OMEGAMAX">     -1.00000000</i>
   <i name="DEG_THRESHOLD">      0.00200000</i>
   <i name="RTIME">     -0.10000000</i>
   <i name="WPLASMAI">      0.00000000</i>
   <v name="DFIELD">      0.00000000      0.00000000      0.00000000</v>
   <v name="WPLASMA">      0.00000000      0.00000000      0.00000000      0.00000000      0.00000000      0.00000000      0.00000000      0.00000000      0.00000000</v>
  </separator>
  <separator name="orbital magnetization" >
   <i type="logical" name="NUCIND"> F  </i>
   <v name="MAGPOS">      0.00000000      0.00000000      0.00000000</v>
   <i type="logical" name="LNICSALL"> T  </i>
   <i type="logical" name="ORBITALMAG"> F  </i>
   <i type="logical" name="LMAGBLOCH"> F  </i>
   <i type="logical" name="LCHIMAG"> F  </i>
   <i type="logical" name="LGAUGE"> T  </i>
   <i type="int" name="MAGATOM">     0</i>
   <v name="MAGDIPOL">      0.00000000      0.00000000      0.00000000</v>
   <v name="AVECCONST">      0.00000000      0.00000000      0.00000000</v>
  </separator>
  <separator name="response functions" >
   <i type="logical" name="LFINITE_TEMPERATURE"> F  </i>
   <i type="logical" name="LADDER"> F  </i>
   <i type="logical" name="LRPAFORCE"> F  </i>
   <i type="logical" name="LFXC"> F  </i>
   <i type="logical" name="LHARTREE"> T  </i>
   <i type="int" name="IBSE">     0</i>
   <v type="int" name="KPOINT">    -1     0     0     0</v>
   <i type="logical" name="LTCTC"> F  </i>
   <i type="logical" name="LTCTE"> F  </i>
   <i type="logical" name="LTETE"> F  </i>
   <i type="logical" name="LTRIPLET"> F  </i>
   <i type="logical" name="LFXCEPS"> F  </i>
   <i type="logical" name="LFXHEG"> F  </i>
   <i type="int" name="NATURALO">     2</i>
   <i type="logical" name="LHOLEGF"> F  </i>
   <i type="logical" name="L2ORDER"> F  </i>
   <i type="logical" name="LDMP1"> F  </i>
   <i type="logical" name="LMP2LT"> F  </i>
   <i type="logical" name="LSMP2LT"> F  </i>
   <i type="logical" name="LGWLF"> F  </i>
   <i name="ENCUTGW">     -2.00000000</i>
   <i name="ENCUTGWSOFT">     -2.00000000</i>
   <i name="ENCUTLF">     -1.00000000</i>
   <i type="logical" name="LESF_SPLINES"> F  </i>
   <i type="int" name="LMAXMP2">    -1</i>
   <i name="SCISSOR">      0.00000000</i>
   <i type="int" name="NOMEGA">     0</i>
   <i type="int" name="NOMEGAR">     0</i>
   <i type="int" name="NBANDSGW">    -1</i>
   <i type="int" name="NBANDSO">    -1</i>
   <i type="int" name="NBANDSV">    -1</i>
   <i type="int" name="NELM">     1</i>
   <i type="int" name="NELMHF">     1</i>
   <i type="int" name="DIM">     3</i>
   <i type="int" name="IESPILON">     4</i>
   <i type="int" name="ANTIRES">     0</i>
   <i name="OMEGAMAX">    -30.00000000</i>
   <i name="OMEGAMIN">    -30.00000000</i>
   <i name="OMEGATL">   -200.00000000</i>
   <i type="int" name="OMEGAGRID">     0</i>
   <i name="CSHIFT">     -0.10000000</i>
   <i type="logical" name="LSELFENERGY"> F  </i>
   <i type="logical" name="LSPECTRAL"> F  </i>
   <i type="logical" name="LSPECTRALGW"> F  </i>
   <i type="logical" name="LSINGLES"> F  </i>
   <i type="logical" name="LFERMIGW"> F  </i>
   <i type="logical" name="ODDONLYGW"> F  </i>
   <i type="logical" name="EVENONLYGW"> F  </i>
   <i type="int" name="NKREDLFX">     1</i>
   <i type="int" name="NKREDLFY">     1</i>
   <i type="int" name="NKREDLFZ">     1</i>
   <i type="int" name="MAXMEM">  2800</i>
   <i type="int" name="TELESCOPE">     0</i>
   <i type="int" name="NTAUPAR">    -1</i>
   <i type="int" name="NOMEGAPAR">    -1</i>
   <i name="DAMP_NEWTON">      0.80000001</i>
   <i name="LAMBDA">      1.00000000</i>
  </separator>
  <separator name="External order field" >
   <i name="OFIELD_KAPPA">      0.00000000</i>
   <v name="OFIELD_K">      0.00000000      0.00000000      0.00000000</v>
   <i name="OFIELD_Q6_NEAR">      0.00000000</i>
   <i name="OFIELD_Q6_FAR">      0.00000000</i>
   <i name="OFIELD_A">      0.00000000</i>
  </separator>
 </parameters>
 <atominfo>
  <atoms>     120 </atoms>
  <types>       2 </types>
  <array name="atoms" >
   <dimension dim="1">ion</dimension>
   <field type="string">element</field>
   <field type="int">atomtype</field>
   <set>
    <rc><c>B </c><c>   1</c></rc>
    <rc><c>B </c><c>   1</c></rc>
    <rc><c>B </c><c>   1</c></rc>
    <rc><c>B </c><c>   1</c></rc>
    <rc><c>B </c><c>   1</c></rc>
    <rc><c>B </c><c>   1</c></rc>
    <rc><c>B </c><c>   1</c></rc>
    <rc><c>B </c><c>   1</c></rc>
    <rc><c>B </c><c>   1</c></rc>
    <rc><c>B </c><c>   1</c></rc>
    <rc><c>B </c><c>   1</c></rc>
    <rc><c>B </c><c>   1</c></rc>
    <rc><c>B </c><c>   1</c></rc>
    <rc><c>B </c><c>   1</c></rc>
    <rc><c>B </c><c>   1</c></rc>
    <rc><c>B </c><c>   1</c></rc>
    <rc><c>B </c><c>   1</c></rc>
    <rc><c>B </c><c>   1</c></rc>
    <rc><c>B </c><c>   1</c></rc>
    <rc><c>B </c><c>   1</c></rc>
    <rc><c>B </c><c>   1</c></rc>
    <rc><c>B </c><c>   1</c></rc>
    <rc><c>B </c><c>   1</c></rc>
    <rc><c>B </c><c>   1</c></rc>
    <rc><c>B </c><c>   1</c></rc>
    <rc><c>B </c><c>   1</c></rc>
    <rc><c>B </c><c>   1</c></rc>
    <rc><c>B </c><c>   1</c></rc>
    <rc><c>B </c><c>   1</c></rc>
    <rc><c>B </c><c>   1</c></rc>
    <rc><c>B </c><c>   1</c></rc>
    <rc><c>B </c><c>   1</c></rc>
    <rc><c>B </c><c>   1</c></rc>
    <rc><c>B </c><c>   1</c></rc>
    <rc><c>B </c><c>   1</c></rc>
    <rc><c>B </c><c>   1</c></rc>
    <rc><c>B </c><c>   1</c></rc>
    <rc><c>B </c><c>   1</c></rc>
    <rc><c>B </c><c>   1</c></rc>
    <rc><c>B </c><c>   1</c></rc>
    <rc><c>B </c><c>   1</c></rc>
    <rc><c>B </c><c>   1</c></rc>
    <rc><c>B </c><c>   1</c></rc>
    <rc><c>B </c><c>   1</c></rc>
    <rc><c>B </c><c>   1</c></rc>
    <rc><c>B </c><c>   1</c></rc>
    <rc><c>B </c><c>   1</c></rc>
    <rc><c>B </c><c>   1</c></rc>
    <rc><c>B </c><c>   1</c></rc>
    <rc><c>B </c><c>   1</c></rc>
    <rc><c>B </c><c>   1</c></rc>
    <rc><c>B </c><c>   1</c></rc>
    <rc><c>B </c><c>   1</c></rc>
    <rc><c>B </c><c>   1</c></rc>
    <rc><c>B </c><c>   1</c></rc>
    <rc><c>B </c><c>   1</c></rc>
    <rc><c>B </c><c>   1</c></rc>
    <rc><c>B </c><c>   1</c></rc>
    <rc><c>B </c><c>   1</c></rc>
    <rc><c>B </c><c>   1</c></rc>
    <rc><c>B </c><c>   1</c></rc>
    <rc><c>B </c><c>   1</c></rc>
    <rc><c>B </c><c>   1</c></rc>
    <rc><c>B </c><c>   1</c></rc>
    <rc><c>B </c><c>   1</c></rc>
    <rc><c>B </c><c>   1</c></rc>
    <rc><c>B </c><c>   1</c></rc>
    <rc><c>B </c><c>   1</c></rc>
    <rc><c>B </c><c>   1</c></rc>
    <rc><c>B </c><c>   1</c></rc>
    <rc><c>B </c><c>   1</c></rc>
    <rc><c>B </c><c>   1</c></rc>
    <rc><c>B </c><c>   1</c></rc>
    <rc><c>B </c><c>   1</c></rc>
    <rc><c>B </c><c>   1</c></rc>
    <rc><c>B </c><c>   1</c></rc>
    <rc><c>B </c><c>   1</c></rc>
    <rc><c>B </c><c>   1</c></rc>
    <rc><c>B </c><c>   1</c></rc>
    <rc><c>B </c><c>   1</c></rc>
    <rc><c>B </c><c>   1</c></rc>
    <rc><c>B </c><c>   1</c></rc>
    <rc><c>B </c><c>   1</c></rc>
    <rc><c>B </c><c>   1</c></rc>
    <rc><c>B </c><c>   1</c></rc>
    <rc><c>B </c><c>   1</c></rc>
    <rc><c>B </c><c>   1</c></rc>
    <rc><c>B </c><c>   1</c></rc>
    <rc><c>B </c><c>   1</c></rc>
    <rc><c>B </c><c>   1</c></rc>
    <rc><c>B </c><c>   1</c></rc>
    <rc><c>B </c><c>   1</c></rc>
    <rc><c>B </c><c>   1</c></rc>
    <rc><c>B </c><c>   1</c></rc>
    <rc><c>B </c><c>   1</c></rc>
    <rc><c>B </c><c>   1</c></rc>
    <rc><c>C </c><c>   2</c></rc>
    <rc><c>C </c><c>   2</c></rc>
    <rc><c>C </c><c>   2</c></rc>
    <rc><c>C </c><c>   2</c></rc>
    <rc><c>C </c><c>   2</c></rc>
    <rc><c>C </c><c>   2</c></rc>
    <rc><c>C </c><c>   2</c></rc>
    <rc><c>C </c><c>   2</c></rc>
    <rc><c>C </c><c>   2</c></rc>
    <rc><c>C </c><c>   2</c></rc>
    <rc><c>C </c><c>   2</c></rc>
    <rc><c>C </c><c>   2</c></rc>
    <rc><c>C </c><c>   2</c></rc>
    <rc><c>C </c><c>   2</c></rc>
    <rc><c>C </c><c>   2</c></rc>
    <rc><c>C </c><c>   2</c></rc>
    <rc><c>C </c><c>   2</c></rc>
    <rc><c>C </c><c>   2</c></rc>
    <rc><c>C </c><c>   2</c></rc>
    <rc><c>C </c><c>   2</c></rc>
    <rc><c>C </c><c>   2</c></rc>
    <rc><c>C </c><c>   2</c></rc>
    <rc><c>C </c><c>   2</c></rc>
    <rc><c>C </c><c>   2</c></rc>
   </set>
  </array>
  <array name="atomtypes" >
   <dimension dim="1">type</dimension>
   <field type="int">atomspertype</field>
   <field type="string">element</field>
   <field>mass</field>
   <field>valence</field>
   <field type="string">pseudopotential</field>
   <set>
    <rc><c>  96</c><c>B </c><c>     10.81100000</c><c>      3.00000000</c><c>  PAW_PBE B 06Sep2000                   </c></rc>
    <rc><c>  24</c><c>C </c><c>     12.01100000</c><c>      4.00000000</c><c>  PAW_PBE C 08Apr2002                   </c></rc>
   </set>
  </array>
 </atominfo>
 <structure name="initialpos" >
  <crystal>
   <varray name="basis" >
    <v>       9.14575700       0.04968200       4.14880500 </v>
    <v>       2.64970700       9.00764900       4.24255300 </v>
    <v>      -0.05092500       0.07130600      10.30292400 </v>
   </varray>
   <i name="volume">    847.32628751 </i>
   <varray name="rec_basis" >
    <v>       0.10916999      -0.03247366       0.00076435 </v>
    <v>      -0.00025496       0.11145567      -0.00077264 </v>
    <v>      -0.04385583      -0.03281881       0.09707019 </v>
   </varray>
  </crystal>
  <varray name="positions" >
   <v>       0.15792300       0.40375800       0.40375800 </v>
   <v>       0.15792300       0.40375800       0.90375800 </v>
   <v>       0.15792300       0.90375800       0.40375800 </v>
   <v>       0.15792300       0.90375800       0.90375800 </v>
   <v>       0.65792300       0.40375800       0.40375800 </v>
   <v>       0.65792300       0.40375800       0.90375800 </v>
   <v>       0.65792300       0.90375800       0.40375800 </v>
   <v>       0.65792300       0.90375800       0.90375800 </v>
   <v>       0.40163200       0.40233800       0.15722000 </v>
   <v>       0.40163200       0.40233800       0.65722000 </v>
   <v>       0.40163200       0.90233800       0.15722000 </v>
   <v>       0.40163200       0.90233800       0.65722000 </v>
   <v>       0.90163200       0.40233800       0.15722000 </v>
   <v>       0.90163200       0.40233800       0.65722000 </v>
   <v>       0.90163200       0.90233800       0.15722000 </v>
   <v>       0.90163200       0.90233800       0.65722000 </v>
   <v>       0.40163200       0.15722000       0.40233800 </v>
   <v>       0.40163200       0.15722000       0.90233800 </v>
   <v>       0.40163200       0.65722000       0.40233800 </v>
   <v>       0.40163200       0.65722000       0.90233800 </v>
   <v>       0.90163200       0.15722000       0.40233800 </v>
   <v>       0.90163200       0.15722000       0.90233800 </v>
   <v>       0.90163200       0.65722000       0.40233800 </v>
   <v>       0.90163200       0.65722000       0.90233800 </v>
   <v>       0.34136600       0.09666500       0.09666500 </v>
   <v>       0.34136600       0.09666500       0.59666500 </v>
   <v>       0.34136600       0.59666500       0.09666500 </v>
   <v>       0.34136600       0.59666500       0.59666500 </v>
   <v>       0.84136600       0.09666500       0.09666500 </v>
   <v>       0.84136600       0.09666500       0.59666500 </v>
   <v>       0.84136600       0.59666500       0.09666500 </v>
   <v>       0.84136600       0.59666500       0.59666500 </v>
   <v>       0.09870000       0.09683600       0.34371100 </v>
   <v>       0.09870000       0.09683600       0.84371100 </v>
   <v>       0.09870000       0.59683600       0.34371100 </v>
   <v>       0.09870000       0.59683600       0.84371100 </v>
   <v>       0.59870000       0.09683600       0.34371100 </v>
   <v>       0.59870000       0.09683600       0.84371100 </v>
   <v>       0.59870000       0.59683600       0.34371100 </v>
   <v>       0.59870000       0.59683600       0.84371100 </v>
   <v>       0.09870000       0.34371100       0.09683600 </v>
   <v>       0.09870000       0.34371100       0.59683600 </v>
   <v>       0.09870000       0.84371100       0.09683600 </v>
   <v>       0.09870000       0.84371100       0.59683600 </v>
   <v>       0.59870000       0.34371100       0.09683600 </v>
   <v>       0.59870000       0.34371100       0.59683600 </v>
   <v>       0.59870000       0.84371100       0.09683600 </v>
   <v>       0.59870000       0.84371100       0.59683600 </v>
   <v>       0.49444700       0.49739900       0.33679800 </v>
   <v>       0.49444700       0.49739900       0.83679800 </v>
   <v>       0.49444700       0.99739900       0.33679800 </v>
   <v>       0.49444700       0.99739900       0.83679800 </v>
   <v>       0.99444700       0.49739900       0.33679800 </v>
   <v>       0.99444700       0.49739900       0.83679800 </v>
   <v>       0.99444700       0.99739900       0.33679800 </v>
   <v>       0.99444700       0.99739900       0.83679800 </v>
   <v>       0.49444700       0.33679800       0.49739900 </v>
   <v>       0.49444700       0.33679800       0.99739900 </v>
   <v>       0.49444700       0.83679800       0.49739900 </v>
   <v>       0.49444700       0.83679800       0.99739900 </v>
   <v>       0.99444700       0.33679800       0.49739900 </v>
   <v>       0.99444700       0.33679800       0.99739900 </v>
   <v>       0.99444700       0.83679800       0.49739900 </v>
   <v>       0.99444700       0.83679800       0.99739900 </v>
   <v>       0.17079500       0.00295000       0.00295000 </v>
   <v>       0.17079500       0.00295000       0.50295000 </v>
   <v>       0.17079500       0.50295000       0.00295000 </v>
   <v>       0.17079500       0.50295000       0.50295000 </v>
   <v>       0.67079500       0.00295000       0.00295000 </v>
   <v>       0.67079500       0.00295000       0.50295000 </v>
   <v>       0.67079500       0.50295000       0.00295000 </v>
   <v>       0.67079500       0.50295000       0.50295000 </v>
   <v>       0.00347500       0.00275500       0.16436200 </v>
   <v>       0.00347500       0.00275500       0.66436200 </v>
   <v>       0.00347500       0.50275500       0.16436200 </v>
   <v>       0.00347500       0.50275500       0.66436200 </v>
   <v>       0.50347500       0.00275500       0.16436200 </v>
   <v>       0.50347500       0.00275500       0.66436200 </v>
   <v>       0.50347500       0.50275500       0.16436200 </v>
   <v>       0.50347500       0.50275500       0.66436200 </v>
   <v>       0.00347500       0.16436200       0.00275500 </v>
   <v>       0.00347500       0.16436200       0.50275500 </v>
   <v>       0.00347500       0.66436200       0.00275500 </v>
   <v>       0.00347500       0.66436200       0.50275500 </v>
   <v>       0.50347500       0.16436200       0.00275500 </v>
   <v>       0.50347500       0.16436200       0.50275500 </v>
   <v>       0.50347500       0.66436200       0.00275500 </v>
   <v>       0.50347500       0.66436200       0.50275500 </v>
   <v>       0.24799500       0.24900900       0.24900900 </v>
   <v>       0.24799500       0.24900900       0.74900900 </v>
   <v>       0.24799500       0.74900900       0.24900900 </v>
   <v>       0.24799500       0.74900900       0.74900900 </v>
   <v>       0.74799500       0.24900900       0.24900900 </v>
   <v>       0.74799500       0.24900900       0.74900900 </v>
   <v>       0.74799500       0.74900900       0.24900900 </v>
   <v>       0.74799500       0.74900900       0.74900900 </v>
   <v>       0.33833600       0.49792800       0.49792800 </v>
   <v>       0.33833600       0.49792800       0.99792800 </v>
   <v>       0.33833600       0.99792800       0.49792800 </v>
   <v>       0.33833600       0.99792800       0.99792800 </v>
   <v>       0.83833600       0.49792800       0.49792800 </v>
   <v>       0.83833600       0.49792800       0.99792800 </v>
   <v>       0.83833600       0.99792800       0.49792800 </v>
   <v>       0.83833600       0.99792800       0.99792800 </v>
   <v>       0.30608800       0.30943700       0.30943700 </v>
   <v>       0.30608800       0.30943700       0.80943700 </v>
   <v>       0.30608800       0.80943700       0.30943700 </v>
   <v>       0.30608800       0.80943700       0.80943700 </v>
   <v>       0.80608800       0.30943700       0.30943700 </v>
   <v>       0.80608800       0.30943700       0.80943700 </v>
   <v>       0.80608800       0.80943700       0.30943700 </v>
   <v>       0.80608800       0.80943700       0.80943700 </v>
   <v>       0.19098900       0.18883500       0.18883500 </v>
   <v>       0.19098900       0.18883500       0.68883500 </v>
   <v>       0.19098900       0.68883500       0.18883500 </v>
   <v>       0.19098900       0.68883500       0.68883500 </v>
   <v>       0.69098900       0.18883500       0.18883500 </v>
   <v>       0.69098900       0.18883500       0.68883500 </v>
   <v>       0.69098900       0.68883500       0.18883500 </v>
   <v>       0.69098900       0.68883500       0.68883500 </v>
  </varray>
 </structure>
 <calculation>
  <scstep>
   <time name="dav">    5.00    5.00</time>
   <time name="total">    5.29    5.29</time>
   <energy>
    <i name="alphaZ">   1221.04105685 </i>
    <i name="ewald"> -11740.79940454 </i>
    <i name="hartreedc">  -1051.69857290 </i>
    <i name="XCdc">   1023.81781246 </i>
    <i name="pawpsdc">   6780.51620165 </i>
    <i name="pawaedc">  -6712.07122612 </i>
    <i name="eentropy">      0.00000000 </i>
    <i name="bandstr">   1682.27423311 </i>
    <i name="atom">  10363.97701633 </i>
    <i name="e_fr_energy">   1567.05711685 </i>
    <i name="e_wo_entrp">   1567.05711685 </i>
    <i name="e_0_energy">   1567.05711685 </i>
   </energy>
  </scstep>
  <scstep>
   <time name="dav">    5.73    5.73</time>
   <time name="total">    5.74    5.74</time>
   <energy>
    <i name="e_fr_energy">   -782.89317726 </i>
    <i name="e_wo_entrp">   -782.89317726 </i>
    <i name="e_0_energy">   -782.89317726 </i>
   </energy>
  </scstep>
  <scstep>
   <time name="dav">    5.71    5.71</time>
   <time name="total">    5.72    5.72</time>
   <energy>
    <i name="e_fr_energy">   -930.86134203 </i>
    <i name="e_wo_entrp">   -930.86134203 </i>
    <i name="e_0_energy">   -930.86134203 </i>
   </energy>
  </scstep>
  <scstep>
   <time name="dav">    5.68    5.68</time>
   <time name="total">    5.69    5.69</time>
   <energy>
    <i name="e_fr_energy">   -934.53794753 </i>
    <i name="e_wo_entrp">   -934.53794753 </i>
    <i name="e_0_energy">   -934.53794753 </i>
   </energy>
  </scstep>
  <scstep>
   <time name="dav">    5.64    5.64</time>
   <time name="total">    7.33    7.33</time>
   <energy>
    <i name="e_fr_energy">   -934.63760119 </i>
    <i name="e_wo_entrp">   -934.63760119 </i>
    <i name="e_0_energy">   -934.63760119 </i>
   </energy>
  </scstep>
  <scstep>
   <time name="diag">    1.07    1.07</time>
   <time name="diis">    4.51    4.48</time>
   <time name="orth">    0.03    0.03</time>
   <time name="total">    7.52    7.48</time>
   <energy>
    <i name="e_fr_energy">   -886.33770230 </i>
    <i name="e_wo_entrp">   -886.33770230 </i>
    <i name="e_0_energy">   -886.33770230 </i>
   </energy>
  </scstep>
  <scstep>
   <time name="diag">    1.07    1.07</time>
   <time name="diis">    4.51    4.47</time>
   <time name="orth">    0.03    0.03</time>
   <time name="total">    7.53    7.49</time>
   <energy>
    <i name="e_fr_energy">   -877.35772962 </i>
    <i name="e_wo_entrp">   -877.35772962 </i>
    <i name="e_0_energy">   -877.35772962 </i>
   </energy>
  </scstep>
  <scstep>
   <time name="diag">    1.06    1.06</time>
   <time name="diis">    4.48    4.46</time>
   <time name="orth">    0.03    0.03</time>
   <time name="total">    7.52    7.50</time>
   <energy>
    <i name="e_fr_energy">   -876.94614451 </i>
    <i name="e_wo_entrp">   -876.94614451 </i>
    <i name="e_0_energy">   -876.94614451 </i>
   </energy>
  </scstep>
  <scstep>
   <time name="diag">    1.06    1.06</time>
   <time name="diis">    4.50    4.47</time>
   <time name="orth">    0.03    0.03</time>
   <time name="total">    7.52    7.48</time>
   <energy>
    <i name="e_fr_energy">   -876.67623875 </i>
    <i name="e_wo_entrp">   -876.67623875 </i>
    <i name="e_0_energy">   -876.67623875 </i>
   </energy>
  </scstep>
  <scstep>
   <time name="diag">    1.07    1.07</time>
   <time name="diis">    4.56    4.52</time>
   <time name="orth">    0.03    0.03</time>
   <time name="total">    7.58    7.54</time>
   <energy>
    <i name="e_fr_energy">   -876.67258340 </i>
    <i name="e_wo_entrp">   -876.67258340 </i>
    <i name="e_0_energy">   -876.67258340 </i>
   </energy>
  </scstep>
  <scstep>
   <time name="diag">    1.07    1.07</time>
   <time name="diis">    4.51    4.48</time>
   <time name="orth">    0.03    0.03</time>
   <time name="total">    7.53    7.49</time>
   <energy>
    <i name="e_fr_energy">   -876.66405787 </i>
    <i name="e_wo_entrp">   -876.66405787 </i>
    <i name="e_0_energy">   -876.66405787 </i>
   </energy>
  </scstep>
  <scstep>
   <time name="diag">    1.06    1.06</time>
   <time name="diis">    4.57    4.53</time>
   <time name="orth">    0.03    0.03</time>
   <time name="total">    7.58    7.55</time>
   <energy>
    <i name="e_fr_energy">   -876.66552558 </i>
    <i name="e_wo_entrp">   -876.66552558 </i>
    <i name="e_0_energy">   -876.66552558 </i>
   </energy>
  </scstep>
  <scstep>
   <time name="diag">    1.07    1.07</time>
   <time name="diis">    4.68    4.64</time>
   <time name="orth">    0.03    0.03</time>
   <time name="total">    7.69    7.65</time>
   <energy>
    <i name="e_fr_energy">   -876.66499577 </i>
    <i name="e_wo_entrp">   -876.66499577 </i>
    <i name="e_0_energy">   -876.66499577 </i>
   </energy>
  </scstep>
  <scstep>
   <time name="diag">    1.07    1.07</time>
   <time name="diis">    4.52    4.48</time>
   <time name="orth">    0.03    0.03</time>
   <time name="total">    7.53    7.50</time>
   <energy>
    <i name="e_fr_energy">   -876.66500355 </i>
    <i name="e_wo_entrp">   -876.66500355 </i>
    <i name="e_0_energy">   -876.66500355 </i>
   </energy>
  </scstep>
  <scstep>
   <time name="diag">    1.07    1.07</time>
   <time name="diis">    4.56    4.52</time>
   <time name="orth">    0.03    0.03</time>
   <time name="total">    7.56    7.53</time>
   <energy>
    <i name="e_fr_energy">   -876.66498587 </i>
    <i name="e_wo_entrp">   -876.66498587 </i>
    <i name="e_0_energy">   -876.66498587 </i>
   </energy>
  </scstep>
  <scstep>
   <time name="diag">    1.06    1.06</time>
   <time name="diis">    4.49    4.46</time>
   <time name="orth">    0.03    0.03</time>
   <time name="total">    7.51    7.48</time>
   <energy>
    <i name="e_fr_energy">   -876.66498452 </i>
    <i name="e_wo_entrp">   -876.66498452 </i>
    <i name="e_0_energy">   -876.66498452 </i>
   </energy>
  </scstep>
  <scstep>
   <time name="diag">    1.06    1.06</time>
   <time name="diis">    3.98    3.95</time>
   <time name="orth">    0.03    0.03</time>
   <time name="total">    7.00    6.97</time>
   <energy>
    <i name="e_fr_energy">   -876.66498603 </i>
    <i name="e_wo_entrp">   -876.66498603 </i>
    <i name="e_0_energy">   -876.66498603 </i>
   </energy>
  </scstep>
  <scstep>
   <time name="diag">    1.07    1.07</time>
   <time name="diis">    3.65    3.63</time>
   <time name="orth">    0.03    0.03</time>
   <time name="total">    6.64    6.62</time>
   <energy>
    <i name="e_fr_energy">   -876.66498737 </i>
    <i name="e_wo_entrp">   -876.66498737 </i>
    <i name="e_0_energy">   -876.66498737 </i>
   </energy>
  </scstep>
  <scstep>
   <time name="diag">    1.07    1.07</time>
   <time name="diis">    2.92    2.90</time>
   <time name="orth">    0.03    0.03</time>
   <time name="total">    4.28    4.26</time>
   <energy>
    <i name="alphaZ">   1221.04105685 </i>
    <i name="ewald"> -11740.79940454 </i>
    <i name="hartreedc">  -1514.82106595 </i>
    <i name="XCdc">   1058.38032594 </i>
    <i name="pawpsdc">  37937.24054939 </i>
    <i name="pawaedc"> -37880.07984204 </i>
    <i name="eentropy">      0.00000000 </i>
    <i name="bandstr">   -321.60362339 </i>
    <i name="atom">  10363.97701633 </i>
    <i name="e_fr_energy">   -876.66498742 </i>
    <i name="e_wo_entrp">   -876.66498742 </i>
    <i name="e_0_energy">   -876.66498742 </i>
   </energy>
  </scstep>
  <structure>
   <crystal>
    <varray name="basis" >
     <v>       9.14575700       0.04968200       4.14880500 </v>
     <v>       2.64970700       9.00764900       4.24255300 </v>
     <v>      -0.05092500       0.07130600      10.30292400 </v>
    </varray>
    <i name="volume">    847.32628751 </i>
    <varray name="rec_basis" >
     <v>       0.10916999      -0.03247366       0.00076435 </v>
     <v>      -0.00025496       0.11145567      -0.00077264 </v>
     <v>      -0.04385583      -0.03281881       0.09707019 </v>
    </varray>
   </crystal>
   <varray name="positions" >
    <v>       0.15792300       0.40375800       0.40375800 </v>
    <v>       0.15792300       0.40375800       0.90375800 </v>
    <v>       0.15792300       0.90375800       0.40375800 </v>
    <v>       0.15792300       0.90375800       0.90375800 </v>
    <v>       0.65792300       0.40375800       0.40375800 </v>
    <v>       0.65792300       0.40375800       0.90375800 </v>
    <v>       0.65792300       0.90375800       0.40375800 </v>
    <v>       0.65792300       0.90375800       0.90375800 </v>
    <v>       0.40163200       0.40233800       0.15722000 </v>
    <v>       0.40163200       0.40233800       0.65722000 </v>
    <v>       0.40163200       0.90233800       0.15722000 </v>
    <v>       0.40163200       0.90233800       0.65722000 </v>
    <v>       0.90163200       0.40233800       0.15722000 </v>
    <v>       0.90163200       0.40233800       0.65722000 </v>
    <v>       0.90163200       0.90233800       0.15722000 </v>
    <v>       0.90163200       0.90233800       0.65722000 </v>
    <v>       0.40163200       0.15722000       0.40233800 </v>
    <v>       0.40163200       0.15722000       0.90233800 </v>
    <v>       0.40163200       0.65722000       0.40233800 </v>
    <v>       0.40163200       0.65722000       0.90233800 </v>
    <v>       0.90163200       0.15722000       0.40233800 </v>
    <v>       0.90163200       0.15722000       0.90233800 </v>
    <v>       0.90163200       0.65722000       0.40233800 </v>
    <v>       0.90163200       0.65722000       0.90233800 </v>
    <v>       0.34136600       0.09666500       0.09666500 </v>
    <v>       0.34136600       0.09666500       0.59666500 </v>
    <v>       0.34136600       0.59666500       0.09666500 </v>
    <v>       0.34136600       0.59666500       0.59666500 </v>
    <v>       0.84136600       0.09666500       0.09666500 </v>
    <v>       0.84136600       0.09666500       0.59666500 </v>
    <v>       0.84136600       0.59666500       0.09666500 </v>
    <v>       0.84136600       0.59666500       0.59666500 </v>
    <v>       0.09870000       0.09683600       0.34371100 </v>
    <v>       0.09870000       0.09683600       0.84371100 </v>
    <v>       0.09870000       0.59683600       0.34371100 </v>
    <v>       0.09870000       0.59683600       0.84371100 </v>
    <v>       0.59870000       0.09683600       0.34371100 </v>
    <v>       0.59870000       0.09683600       0.84371100 </v>
    <v>       0.59870000       0.59683600       0.34371100 </v>
    <v>       0.59870000       0.59683600       0.84371100 </v>
    <v>       0.09870000       0.34371100       0.09683600 </v>
    <v>       0.09870000       0.34371100       0.59683600 </v>
    <v>       0.09870000       0.84371100       0.09683600 </v>
    <v>       0.09870000       0.84371100       0.59683600 </v>
    <v>       0.59870000       0.34371100       0.09683600 </v>
    <v>       0.59870000       0.34371100       0.59683600 </v>
    <v>       0.59870000       0.84371100       0.09683600 </v>
    <v>       0.59870000       0.84371100       0.59683600 </v>
    <v>       0.49444700       0.49739900       0.33679800 </v>
    <v>       0.49444700       0.49739900       0.83679800 </v>
    <v>       0.49444700       0.99739900       0.33679800 </v>
    <v>       0.49444700       0.99739900       0.83679800 </v>
    <v>       0.99444700       0.49739900       0.33679800 </v>
    <v>       0.99444700       0.49739900       0.83679800 </v>
    <v>       0.99444700       0.99739900       0.33679800 </v>
    <v>       0.99444700       0.99739900       0.83679800 </v>
    <v>       0.49444700       0.33679800       0.49739900 </v>
    <v>       0.49444700       0.33679800       0.99739900 </v>
    <v>       0.49444700       0.83679800       0.49739900 </v>
    <v>       0.49444700       0.83679800       0.99739900 </v>
    <v>       0.99444700       0.33679800       0.49739900 </v>
    <v>       0.99444700       0.33679800       0.99739900 </v>
    <v>       0.99444700       0.83679800       0.49739900 </v>
    <v>       0.99444700       0.83679800       0.99739900 </v>
    <v>       0.17079500       0.00295000       0.00295000 </v>
    <v>       0.17079500       0.00295000       0.50295000 </v>
    <v>       0.17079500       0.50295000       0.00295000 </v>
    <v>       0.17079500       0.50295000       0.50295000 </v>
    <v>       0.67079500       0.00295000       0.00295000 </v>
    <v>       0.67079500       0.00295000       0.50295000 </v>
    <v>       0.67079500       0.50295000       0.00295000 </v>
    <v>       0.67079500       0.50295000       0.50295000 </v>
    <v>       0.00347500       0.00275500       0.16436200 </v>
    <v>       0.00347500       0.00275500       0.66436200 </v>
    <v>       0.00347500       0.50275500       0.16436200 </v>
    <v>       0.00347500       0.50275500       0.66436200 </v>
    <v>       0.50347500       0.00275500       0.16436200 </v>
    <v>       0.50347500       0.00275500       0.66436200 </v>
    <v>       0.50347500       0.50275500       0.16436200 </v>
    <v>       0.50347500       0.50275500       0.66436200 </v>
    <v>       0.00347500       0.16436200       0.00275500 </v>
    <v>       0.00347500       0.16436200       0.50275500 </v>
    <v>       0.00347500       0.66436200       0.00275500 </v>
    <v>       0.00347500       0.66436200       0.50275500 </v>
    <v>       0.50347500       0.16436200       0.00275500 </v>
    <v>       0.50347500       0.16436200       0.50275500 </v>
    <v>       0.50347500       0.66436200       0.00275500 </v>
    <v>       0.50347500       0.66436200       0.50275500 </v>
    <v>       0.24799500       0.24900900       0.24900900 </v>
    <v>       0.24799500       0.24900900       0.74900900 </v>
    <v>       0.24799500       0.74900900       0.24900900 </v>
    <v>       0.24799500       0.74900900       0.74900900 </v>
    <v>       0.74799500       0.24900900       0.24900900 </v>
    <v>       0.74799500       0.24900900       0.74900900 </v>
    <v>       0.74799500       0.74900900       0.24900900 </v>
    <v>       0.74799500       0.74900900       0.74900900 </v>
    <v>       0.33833600       0.49792800       0.49792800 </v>
    <v>       0.33833600       0.49792800       0.99792800 </v>
    <v>       0.33833600       0.99792800       0.49792800 </v>
    <v>       0.33833600       0.99792800       0.99792800 </v>
    <v>       0.83833600       0.49792800       0.49792800 </v>
    <v>       0.83833600       0.49792800       0.99792800 </v>
    <v>       0.83833600       0.99792800       0.49792800 </v>
    <v>       0.83833600       0.99792800       0.99792800 </v>
    <v>       0.30608800       0.30943700       0.30943700 </v>
    <v>       0.30608800       0.30943700       0.80943700 </v>
    <v>       0.30608800       0.80943700       0.30943700 </v>
    <v>       0.30608800       0.80943700       0.80943700 </v>
    <v>       0.80608800       0.30943700       0.30943700 </v>
    <v>       0.80608800       0.30943700       0.80943700 </v>
    <v>       0.80608800       0.80943700       0.30943700 </v>
    <v>       0.80608800       0.80943700       0.80943700 </v>
    <v>       0.19098900       0.18883500       0.18883500 </v>
    <v>       0.19098900       0.18883500       0.68883500 </v>
    <v>       0.19098900       0.68883500       0.18883500 </v>
    <v>       0.19098900       0.68883500       0.68883500 </v>
    <v>       0.69098900       0.18883500       0.18883500 </v>
    <v>       0.69098900       0.18883500       0.68883500 </v>
    <v>       0.69098900       0.68883500       0.18883500 </v>
    <v>       0.69098900       0.68883500       0.68883500 </v>
   </varray>
  </structure>
  <varray name="forces" >
   <v>       0.05397371      -0.04873272      -0.04780715 </v>
   <v>       0.05397371      -0.04873272      -0.04780715 </v>
   <v>       0.05397371      -0.04873272      -0.04780715 </v>
   <v>       0.05397371      -0.04873272      -0.04780715 </v>
   <v>       0.05397371      -0.04873272      -0.04780715 </v>
   <v>       0.05397371      -0.04873272      -0.04780715 </v>
   <v>       0.05397371      -0.04873272      -0.04780715 </v>
   <v>       0.05397371      -0.04873272      -0.04780715 </v>
   <v>      -0.19331208      -0.17778550       0.04455631 </v>
   <v>      -0.19331208      -0.17778550       0.04455631 </v>
   <v>      -0.19331208      -0.17778550       0.04455631 </v>
   <v>      -0.19331208      -0.17778550       0.04455631 </v>
   <v>      -0.19331208      -0.17778550       0.04455631 </v>
   <v>      -0.19331208      -0.17778550       0.04455631 </v>
   <v>      -0.19331208      -0.17778550       0.04455631 </v>
   <v>      -0.19331208      -0.17778550       0.04455631 </v>
   <v>      -0.08950519       0.16570966      -0.18839223 </v>
   <v>      -0.08950519       0.16570966      -0.18839223 </v>
   <v>      -0.08950519       0.16570966      -0.18839223 </v>
   <v>      -0.08950519       0.16570966      -0.18839223 </v>
   <v>      -0.08950519       0.16570966      -0.18839223 </v>
   <v>      -0.08950519       0.16570966      -0.18839223 </v>
   <v>      -0.08950519       0.16570966      -0.18839223 </v>
   <v>      -0.08950519       0.16570966      -0.18839223 </v>
   <v>      -0.08366359       0.06786342       0.06278595 </v>
   <v>      -0.08366359       0.06786342       0.06278595 </v>
   <v>      -0.08366359       0.06786342       0.06278595 </v>
   <v>      -0.08366359       0.06786342       0.06278595 </v>
   <v>      -0.08366359       0.06786342       0.06278595 </v>
   <v>      -0.08366359       0.06786342       0.06278595 </v>
   <v>      -0.08366359       0.06786342       0.06278595 </v>
   <v>      -0.08366359       0.06786342       0.06278595 </v>
   <v>       0.16497640       0.14778342       0.03247796 </v>
   <v>       0.16497640       0.14778342       0.03247796 </v>
   <v>       0.16497640       0.14778342       0.03247796 </v>
   <v>       0.16497640       0.14778342       0.03247796 </v>
   <v>       0.16497640       0.14778342       0.03247796 </v>
   <v>       0.16497640       0.14778342       0.03247796 </v>
   <v>       0.16497640       0.14778342       0.03247796 </v>
   <v>       0.16497640       0.14778342       0.03247796 </v>
   <v>       0.09655115      -0.07863451       0.18602810 </v>
   <v>       0.09655115      -0.07863451       0.18602810 </v>
   <v>       0.09655115      -0.07863451       0.18602810 </v>
   <v>       0.09655115      -0.07863451       0.18602810 </v>
   <v>       0.09655115      -0.07863451       0.18602810 </v>
   <v>       0.09655115      -0.07863451       0.18602810 </v>
   <v>       0.09655115      -0.07863451       0.18602810 </v>
   <v>       0.09655115      -0.07863451       0.18602810 </v>
   <v>      -0.06354972       0.00068798      -0.03306337 </v>
   <v>      -0.06354972       0.00068798      -0.03306337 </v>
   <v>      -0.06354972       0.00068798      -0.03306337 </v>
   <v>      -0.06354972       0.00068798      -0.03306337 </v>
   <v>      -0.06354972       0.00068798      -0.03306337 </v>
   <v>      -0.06354972       0.00068798      -0.03306337 </v>
   <v>      -0.06354972       0.00068798      -0.03306337 </v>
   <v>      -0.06354972       0.00068798      -0.03306337 </v>
   <v>      -0.06507139      -0.00434719      -0.02964866 </v>
   <v>      -0.06507139      -0.00434719      -0.02964866 </v>
   <v>      -0.06507139      -0.00434719      -0.02964866 </v>
   <v>      -0.06507139      -0.00434719      -0.02964866 </v>
   <v>      -0.06507139      -0.00434719      -0.02964866 </v>
   <v>      -0.06507139      -0.00434719      -0.02964866 </v>
   <v>      -0.06507139      -0.00434719      -0.02964866 </v>
   <v>      -0.06507139      -0.00434719      -0.02964866 </v>
   <v>      -0.13018845       0.07837476       0.05755299 </v>
   <v>      -0.13018845       0.07837476       0.05755299 </v>
   <v>      -0.13018845       0.07837476       0.05755299 </v>
   <v>      -0.13018845       0.07837476       0.05755299 </v>
   <v>      -0.13018845       0.07837476       0.05755299 </v>
   <v>      -0.13018845       0.07837476       0.05755299 </v>
   <v>      -0.13018845       0.07837476       0.05755299 </v>
   <v>      -0.13018845       0.07837476       0.05755299 </v>
   <v>       0.11117631       0.03915734       0.12167406 </v>
   <v>       0.11117631       0.03915734       0.12167406 </v>
   <v>       0.11117631       0.03915734       0.12167406 </v>
   <v>       0.11117631       0.03915734       0.12167406 </v>
   <v>       0.11117631       0.03915734       0.12167406 </v>
   <v>       0.11117631       0.03915734       0.12167406 </v>
   <v>       0.11117631       0.03915734       0.12167406 </v>
   <v>       0.11117631       0.03915734       0.12167406 </v>
   <v>       0.11497919       0.05174101       0.11314017 </v>
   <v>       0.11497919       0.05174101       0.11314017 </v>
   <v>       0.11497919       0.05174101       0.11314017 </v>
   <v>       0.11497919       0.05174101       0.11314017 </v>
   <v>       0.11497919       0.05174101       0.11314017 </v>
   <v>       0.11497919       0.05174101       0.11314017 </v>
   <v>       0.11497919       0.05174101       0.11314017 </v>
   <v>       0.11497919       0.05174101       0.11314017 </v>
   <v>       0.08941651       0.14638847       0.25570353 </v>
   <v>       0.08941651       0.14638847       0.25570353 </v>
   <v>       0.08941651       0.14638847       0.25570353 </v>
   <v>       0.08941651       0.14638847       0.25570353 </v>
   <v>       0.08941651       0.14638847       0.25570353 </v>
   <v>       0.08941651       0.14638847       0.25570353 </v>
   <v>       0.08941651       0.14638847       0.25570353 </v>
   <v>       0.08941651       0.14638847       0.25570353 </v>
   <v>       0.18528033      -0.05916010      -0.00466983 </v>
   <v>       0.18528033      -0.05916010      -0.00466983 </v>
   <v>       0.18528033      -0.05916010      -0.00466983 </v>
   <v>       0.18528033      -0.05916010      -0.00466983 </v>
   <v>       0.18528033      -0.05916010      -0.00466983 </v>
   <v>       0.18528033      -0.05916010      -0.00466983 </v>
   <v>       0.18528033      -0.05916010      -0.00466983 </v>
   <v>       0.18528033      -0.05916010      -0.00466983 </v>
   <v>       0.06014512       0.06662515       0.12504430 </v>
   <v>       0.06014512       0.06662515       0.12504430 </v>
   <v>       0.06014512       0.06662515       0.12504430 </v>
   <v>       0.06014512       0.06662515       0.12504430 </v>
   <v>       0.06014512       0.06662515       0.12504430 </v>
   <v>       0.06014512       0.06662515       0.12504430 </v>
   <v>       0.06014512       0.06662515       0.12504430 </v>
   <v>       0.06014512       0.06662515       0.12504430 </v>
   <v>      -0.25120831      -0.39567120      -0.69538213 </v>
   <v>      -0.25120831      -0.39567120      -0.69538213 </v>
   <v>      -0.25120831      -0.39567120      -0.69538213 </v>
   <v>      -0.25120831      -0.39567120      -0.69538213 </v>
   <v>      -0.25120831      -0.39567120      -0.69538213 </v>
   <v>      -0.25120831      -0.39567120      -0.69538213 </v>
   <v>      -0.25120831      -0.39567120      -0.69538213 </v>
   <v>      -0.25120831      -0.39567120      -0.69538213 </v>
  </varray>
  <varray name="stress" >
   <v>      72.16611165      -0.24133851      -0.05618531 </v>
   <v>      -0.24133851      77.07521436       8.12280659 </v>
   <v>      -0.05618530       8.12280659      83.44607937 </v>
  </varray>
  <energy>
   <i name="e_fr_energy">   -876.66498742 </i>
   <i name="e_wo_entrp">   -876.66498742 </i>
   <i name="e_0_energy">   -876.66498742 </i>
  </energy>
  <time name="totalsc">  150.63  150.32</time>
 </calculation>
 <calculation>
  <scstep>
   <time name="dav">    5.38    5.37</time>
   <time name="total">    7.29    7.29</time>
   <energy>
    <i name="alphaZ">   1221.04105685 </i>
    <i name="ewald"> -11768.41405542 </i>
    <i name="hartreedc">  -1499.77473151 </i>
    <i name="XCdc">   1057.72131664 </i>
    <i name="pawpsdc">  37937.12537646 </i>
    <i name="pawaedc"> -37879.96474692 </i>
    <i name="eentropy">      0.00000000 </i>
    <i name="bandstr">   -308.23347909 </i>
    <i name="atom">  10363.97701633 </i>
    <i name="e_fr_energy">   -876.52224666 </i>
    <i name="e_wo_entrp">   -876.52224666 </i>
    <i name="e_0_energy">   -876.52224666 </i>
   </energy>
  </scstep>
  <scstep>
   <time name="diag">    1.07    1.07</time>
   <time name="diis">    4.50    4.47</time>
   <time name="orth">    0.03    0.03</time>
   <time name="total">    7.51    7.47</time>
   <energy>
    <i name="e_fr_energy">   -876.46758400 </i>
    <i name="e_wo_entrp">   -876.46758400 </i>
    <i name="e_0_energy">   -876.46758400 </i>
   </energy>
  </scstep>
  <scstep>
   <time name="diag">    1.08    1.08</time>
   <time name="diis">    4.51    4.47</time>
   <time name="orth">    0.03    0.03</time>
   <time name="total">    7.51    7.47</time>
   <energy>
    <i name="e_fr_energy">   -876.43810305 </i>
    <i name="e_wo_entrp">   -876.43810305 </i>
    <i name="e_0_energy">   -876.43810305 </i>
   </energy>
  </scstep>
  <scstep>
   <time name="diag">    1.07    1.07</time>
   <time name="diis">    4.54    4.50</time>
   <time name="orth">    0.03    0.03</time>
   <time name="total">    7.54    7.50</time>
   <energy>
    <i name="e_fr_energy">   -876.43820415 </i>
    <i name="e_wo_entrp">   -876.43820415 </i>
    <i name="e_0_energy">   -876.43820415 </i>
   </energy>
  </scstep>
  <scstep>
   <time name="diag">    1.07    1.07</time>
   <time name="diis">    4.54    4.50</time>
   <time name="orth">    0.03    0.03</time>
   <time name="total">    7.54    7.50</time>
   <energy>
    <i name="e_fr_energy">   -876.43836602 </i>
    <i name="e_wo_entrp">   -876.43836602 </i>
    <i name="e_0_energy">   -876.43836602 </i>
   </energy>
  </scstep>
  <scstep>
   <time name="diag">    1.07    1.07</time>
   <time name="diis">    4.63    4.60</time>
   <time name="orth">    0.03    0.03</time>
   <time name="total">    7.66    7.63</time>
   <energy>
    <i name="e_fr_energy">   -876.43845126 </i>
    <i name="e_wo_entrp">   -876.43845126 </i>
    <i name="e_0_energy">   -876.43845126 </i>
   </energy>
  </scstep>
  <scstep>
   <time name="diag">    1.08    1.08</time>
   <time name="diis">    4.64    4.60</time>
   <time name="orth">    0.03    0.03</time>
   <time name="total">    7.66    7.63</time>
   <energy>
    <i name="e_fr_energy">   -876.43848453 </i>
    <i name="e_wo_entrp">   -876.43848453 </i>
    <i name="e_0_energy">   -876.43848453 </i>
   </energy>
  </scstep>
  <scstep>
   <time name="diag">    1.07    1.07</time>
   <time name="diis">    4.58    4.55</time>
   <time name="orth">    0.03    0.03</time>
   <time name="total">    7.61    7.57</time>
   <energy>
    <i name="e_fr_energy">   -876.43848948 </i>
    <i name="e_wo_entrp">   -876.43848948 </i>
    <i name="e_0_energy">   -876.43848948 </i>
   </energy>
  </scstep>
  <scstep>
   <time name="diag">    1.07    1.07</time>
   <time name="diis">    4.46    4.43</time>
   <time name="orth">    0.03    0.03</time>
   <time name="total">    7.48    7.44</time>
   <energy>
    <i name="e_fr_energy">   -876.43849116 </i>
    <i name="e_wo_entrp">   -876.43849116 </i>
    <i name="e_0_energy">   -876.43849116 </i>
   </energy>
  </scstep>
  <scstep>
   <time name="diag">    1.07    1.07</time>
   <time name="diis">    3.44    3.41</time>
   <time name="orth">    0.03    0.03</time>
   <time name="total">    4.79    4.77</time>
   <energy>
    <i name="alphaZ">   1221.04105685 </i>
    <i name="ewald"> -11768.41405542 </i>
    <i name="hartreedc">  -1496.76256690 </i>
    <i name="XCdc">   1057.53512015 </i>
    <i name="pawpsdc">  37595.41734339 </i>
    <i name="pawaedc"> -37538.09058323 </i>
    <i name="eentropy">      0.00000000 </i>
    <i name="bandstr">   -311.14182260 </i>
    <i name="atom">  10363.97701633 </i>
    <i name="e_fr_energy">   -876.43849143 </i>
    <i name="e_wo_entrp">   -876.43849143 </i>
    <i name="e_0_energy">   -876.43849143 </i>
   </energy>
  </scstep>
  <structure>
   <crystal>
    <varray name="basis" >
     <v>       9.13522511       0.05637270       4.15397756 </v>
     <v>       2.64615792       9.01392013       4.26339114 </v>
     <v>      -0.05099338       0.08909466      10.31595125 </v>
    </varray>
    <i name="volume">    847.32628751 </i>
    <varray name="rec_basis" >
     <v>       0.10929357      -0.03247278       0.00082071 </v>
     <v>      -0.00024954       0.11146870      -0.00096394 </v>
     <v>      -0.04390668      -0.03299196       0.09700516 </v>
    </varray>
   </crystal>
   <varray name="positions" >
    <v>       0.15828184       0.40349709       0.40349709 </v>
    <v>       0.15828184       0.40349709       0.90349709 </v>
    <v>       0.15828184       0.90349709       0.40349709 </v>
    <v>       0.15828184       0.90349709       0.90349709 </v>
    <v>       0.65828184       0.40349709       0.40349709 </v>
    <v>       0.65828184       0.40349709       0.90349709 </v>
    <v>       0.65828184       0.90349709       0.40349709 </v>
    <v>       0.65828184       0.90349709       0.90349709 </v>
    <v>       0.40089406       0.40138278       0.15811913 </v>
    <v>       0.40089406       0.40138278       0.65811913 </v>
    <v>       0.40089406       0.90138278       0.15811913 </v>
    <v>       0.40089406       0.90138278       0.65811913 </v>
    <v>       0.90089406       0.40138278       0.15811913 </v>
    <v>       0.90089406       0.40138278       0.65811913 </v>
    <v>       0.90089406       0.90138278       0.15811913 </v>
    <v>       0.90089406       0.90138278       0.65811913 </v>
    <v>       0.40089406       0.15811913       0.40138278 </v>
    <v>       0.40089406       0.15811913       0.90138278 </v>
    <v>       0.40089406       0.65811913       0.40138278 </v>
    <v>       0.40089406       0.65811913       0.90138278 </v>
    <v>       0.90089406       0.15811913       0.40138278 </v>
    <v>       0.90089406       0.15811913       0.90138278 </v>
    <v>       0.90089406       0.65811913       0.40138278 </v>
    <v>       0.90089406       0.65811913       0.90138278 </v>
    <v>       0.34082137       0.09702858       0.09702858 </v>
    <v>       0.34082137       0.09702858       0.59702858 </v>
    <v>       0.34082137       0.59702858       0.09702858 </v>
    <v>       0.34082137       0.59702858       0.59702858 </v>
    <v>       0.84082137       0.09702858       0.09702858 </v>
    <v>       0.84082137       0.09702858       0.59702858 </v>
    <v>       0.84082137       0.59702858       0.09702858 </v>
    <v>       0.84082137       0.59702858       0.59702858 </v>
    <v>       0.09933855       0.09762738       0.34328007 </v>
    <v>       0.09933855       0.09762738       0.84328007 </v>
    <v>       0.09933855       0.59762738       0.34328007 </v>
    <v>       0.09933855       0.59762738       0.84328007 </v>
    <v>       0.59933855       0.09762738       0.34328007 </v>
    <v>       0.59933855       0.09762738       0.84328007 </v>
    <v>       0.59933855       0.59762738       0.34328007 </v>
    <v>       0.59933855       0.59762738       0.84328007 </v>
    <v>       0.09933855       0.34328007       0.09762738 </v>
    <v>       0.09933855       0.34328007       0.59762738 </v>
    <v>       0.09933855       0.84328007       0.09762738 </v>
    <v>       0.09933855       0.84328007       0.59762738 </v>
    <v>       0.59933855       0.34328007       0.09762738 </v>
    <v>       0.59933855       0.34328007       0.59762738 </v>
    <v>       0.59933855       0.84328007       0.09762738 </v>
    <v>       0.59933855       0.84328007       0.59762738 </v>
    <v>       0.49411001       0.49740471       0.33677653 </v>
    <v>       0.49411001       0.49740471       0.83677653 </v>
    <v>       0.49411001       0.99740471       0.33677653 </v>
    <v>       0.49411001       0.99740471       0.83677653 </v>
    <v>       0.99411001       0.49740471       0.33677653 </v>
    <v>       0.99411001       0.49740471       0.83677653 </v>
    <v>       0.99411001       0.99740471       0.33677653 </v>
    <v>       0.99411001       0.99740471       0.83677653 </v>
    <v>       0.49411001       0.33677653       0.49740471 </v>
    <v>       0.49411001       0.33677653       0.99740471 </v>
    <v>       0.49411001       0.83677653       0.49740471 </v>
    <v>       0.49411001       0.83677653       0.99740471 </v>
    <v>       0.99411001       0.33677653       0.49740471 </v>
    <v>       0.99411001       0.33677653       0.99740471 </v>
    <v>       0.99411001       0.83677653       0.49740471 </v>
    <v>       0.99411001       0.83677653       0.99740471 </v>
    <v>       0.16998868       0.00337087       0.00337087 </v>
    <v>       0.16998868       0.00337087       0.50337087 </v>
    <v>       0.16998868       0.50337087       0.00337087 </v>
    <v>       0.16998868       0.50337087       0.50337087 </v>
    <v>       0.66998868       0.00337087       0.00337087 </v>
    <v>       0.66998868       0.00337087       0.50337087 </v>
    <v>       0.66998868       0.50337087       0.00337087 </v>
    <v>       0.66998868       0.50337087       0.50337087 </v>
    <v>       0.00400367       0.00295964       0.16463458 </v>
    <v>       0.00400367       0.00295964       0.66463458 </v>
    <v>       0.00400367       0.50295964       0.16463458 </v>
    <v>       0.00400367       0.50295964       0.66463458 </v>
    <v>       0.50400367       0.00295964       0.16463458 </v>
    <v>       0.50400367       0.00295964       0.66463458 </v>
    <v>       0.50400367       0.50295964       0.16463458 </v>
    <v>       0.50400367       0.50295964       0.66463458 </v>
    <v>       0.00400367       0.16463458       0.00295964 </v>
    <v>       0.00400367       0.16463458       0.50295964 </v>
    <v>       0.00400367       0.66463458       0.00295964 </v>
    <v>       0.00400367       0.66463458       0.50295964 </v>
    <v>       0.50400367       0.16463458       0.00295964 </v>
    <v>       0.50400367       0.16463458       0.50295964 </v>
    <v>       0.50400367       0.66463458       0.00295964 </v>
    <v>       0.50400367       0.66463458       0.50295964 </v>
    <v>       0.24824602       0.24978549       0.24978549 </v>
    <v>       0.24824602       0.24978549       0.74978549 </v>
    <v>       0.24824602       0.74978549       0.24978549 </v>
    <v>       0.24824602       0.74978549       0.74978549 </v>
    <v>       0.74824602       0.24978549       0.24978549 </v>
    <v>       0.74824602       0.24978549       0.74978549 </v>
    <v>       0.74824602       0.74978549       0.24978549 </v>
    <v>       0.74824602       0.74978549       0.74978549 </v>
    <v>       0.33940432       0.49760780       0.49760780 </v>
    <v>       0.33940432       0.49760780       0.99760780 </v>
    <v>       0.33940432       0.99760780       0.49760780 </v>
    <v>       0.33940432       0.99760780       0.99760780 </v>
    <v>       0.83940432       0.49760780       0.49760780 </v>
    <v>       0.83940432       0.49760780       0.99760780 </v>
    <v>       0.83940432       0.99760780       0.49760780 </v>
    <v>       0.83940432       0.99760780       0.99760780 </v>
    <v>       0.30630500       0.30978984       0.30978984 </v>
    <v>       0.30630500       0.30978984       0.80978984 </v>
    <v>       0.30630500       0.80978984       0.30978984 </v>
    <v>       0.30630500       0.80978984       0.80978984 </v>
    <v>       0.80630500       0.30978984       0.30978984 </v>
    <v>       0.80630500       0.30978984       0.80978984 </v>
    <v>       0.80630500       0.80978984       0.30978984 </v>
    <v>       0.80630500       0.80978984       0.80978984 </v>
    <v>       0.19026020       0.18673652       0.18673652 </v>
    <v>       0.19026020       0.18673652       0.68673652 </v>
    <v>       0.19026020       0.68673652       0.18673652 </v>
    <v>       0.19026020       0.68673652       0.68673652 </v>
    <v>       0.69026020       0.18673652       0.18673652 </v>
    <v>       0.69026020       0.18673652       0.68673652 </v>
    <v>       0.69026020       0.68673652       0.18673652 </v>
    <v>       0.69026020       0.68673652       0.68673652 </v>
   </varray>
  </structure>
  <varray name="forces" >
   <v>      -0.14800350       0.18345507       0.20456074 </v>
   <v>      -0.14800350       0.18345507       0.20456074 </v>
   <v>      -0.14800350       0.18345507       0.20456074 </v>
   <v>      -0.14800350       0.18345507       0.20456074 </v>
   <v>      -0.14800350       0.18345507       0.20456074 </v>
   <v>      -0.14800350       0.18345507       0.20456074 </v>
   <v>      -0.14800350       0.18345507       0.20456074 </v>
   <v>      -0.14800350       0.18345507       0.20456074 </v>
   <v>       0.31231327       0.18556184      -0.12069297 </v>
   <v>       0.31231327       0.18556184      -0.12069297 </v>
   <v>       0.31231327       0.18556184      -0.12069297 </v>
   <v>       0.31231327       0.18556184      -0.12069297 </v>
   <v>       0.31231327       0.18556184      -0.12069297 </v>
   <v>       0.31231327       0.18556184      -0.12069297 </v>
   <v>       0.31231327       0.18556184      -0.12069297 </v>
   <v>       0.31231327       0.18556184      -0.12069297 </v>
   <v>       0.17134592      -0.28089660       0.19564573 </v>
   <v>       0.17134592      -0.28089660       0.19564573 </v>
   <v>       0.17134592      -0.28089660       0.19564573 </v>
   <v>       0.17134592      -0.28089660       0.19564573 </v>
   <v>       0.17134592      -0.28089660       0.19564573 </v>
   <v>       0.17134592      -0.28089660       0.19564573 </v>
   <v>       0.17134592      -0.28089660       0.19564573 </v>
   <v>       0.17134592      -0.28089660       0.19564573 </v>
   <v>       0.24446724      -0.25388037      -0.26542030 </v>
   <v>       0.24446724      -0.25388037      -0.26542030 </v>
   <v>       0.24446724      -0.25388037      -0.26542030 </v>
   <v>       0.24446724      -0.25388037      -0.26542030 </v>
   <v>       0.24446724      -0.25388037      -0.26542030 </v>
   <v>       0.24446724      -0.25388037      -0.26542030 </v>
   <v>       0.24446724      -0.25388037      -0.26542030 </v>
   <v>       0.24446724      -0.25388037      -0.26542030 </v>
   <v>      -0.16500685      -0.09832806      -0.03027904 </v>
   <v>      -0.16500685      -0.09832806      -0.03027904 </v>
   <v>      -0.16500685      -0.09832806      -0.03027904 </v>
   <v>      -0.16500685      -0.09832806      -0.03027904 </v>
   <v>      -0.16500685      -0.09832806      -0.03027904 </v>
   <v>      -0.16500685      -0.09832806      -0.03027904 </v>
   <v>      -0.16500685      -0.09832806      -0.03027904 </v>
   <v>      -0.16500685      -0.09832806      -0.03027904 </v>
   <v>      -0.11526638       0.06626226      -0.14189947 </v>
   <v>      -0.11526638       0.06626226      -0.14189947 </v>
   <v>      -0.11526638       0.06626226      -0.14189947 </v>
   <v>      -0.11526638       0.06626226      -0.14189947 </v>
   <v>      -0.11526638       0.06626226      -0.14189947 </v>
   <v>      -0.11526638       0.06626226      -0.14189947 </v>
   <v>      -0.11526638       0.06626226      -0.14189947 </v>
   <v>      -0.11526638       0.06626226      -0.14189947 </v>
   <v>       0.03404993       0.08049059       0.14179072 </v>
   <v>       0.03404993       0.08049059       0.14179072 </v>
   <v>       0.03404993       0.08049059       0.14179072 </v>
   <v>       0.03404993       0.08049059       0.14179072 </v>
   <v>       0.03404993       0.08049059       0.14179072 </v>
   <v>       0.03404993       0.08049059       0.14179072 </v>
   <v>       0.03404993       0.08049059       0.14179072 </v>
   <v>       0.03404993       0.08049059       0.14179072 </v>
   <v>       0.03614524       0.08742395       0.13708872 </v>
   <v>       0.03614524       0.08742395       0.13708872 </v>
   <v>       0.03614524       0.08742395       0.13708872 </v>
   <v>       0.03614524       0.08742395       0.13708872 </v>
   <v>       0.03614524       0.08742395       0.13708872 </v>
   <v>       0.03614524       0.08742395       0.13708872 </v>
   <v>       0.03614524       0.08742395       0.13708872 </v>
   <v>       0.03614524       0.08742395       0.13708872 </v>
   <v>       0.21350777      -0.02353002       0.06044739 </v>
   <v>       0.21350777      -0.02353002       0.06044739 </v>
   <v>       0.21350777      -0.02353002       0.06044739 </v>
   <v>       0.21350777      -0.02353002       0.06044739 </v>
   <v>       0.21350777      -0.02353002       0.06044739 </v>
   <v>       0.21350777      -0.02353002       0.06044739 </v>
   <v>       0.21350777      -0.02353002       0.06044739 </v>
   <v>       0.21350777      -0.02353002       0.06044739 </v>
   <v>      -0.06285254      -0.07246544      -0.04460090 </v>
   <v>      -0.06285254      -0.07246544      -0.04460090 </v>
   <v>      -0.06285254      -0.07246544      -0.04460090 </v>
   <v>      -0.06285254      -0.07246544      -0.04460090 </v>
   <v>      -0.06285254      -0.07246544      -0.04460090 </v>
   <v>      -0.06285254      -0.07246544      -0.04460090 </v>
   <v>      -0.06285254      -0.07246544      -0.04460090 </v>
   <v>      -0.06285254      -0.07246544      -0.04460090 </v>
   <v>      -0.03900201       0.00645553      -0.09812283 </v>
   <v>      -0.03900201       0.00645553      -0.09812283 </v>
   <v>      -0.03900201       0.00645553      -0.09812283 </v>
   <v>      -0.03900201       0.00645553      -0.09812283 </v>
   <v>      -0.03900201       0.00645553      -0.09812283 </v>
   <v>      -0.03900201       0.00645553      -0.09812283 </v>
   <v>      -0.03900201       0.00645553      -0.09812283 </v>
   <v>      -0.03900201       0.00645553      -0.09812283 </v>
   <v>      -0.83700992      -0.67978160      -1.37536390 </v>
   <v>      -0.83700992      -0.67978160      -1.37536390 </v>
   <v>      -0.83700992      -0.67978160      -1.37536390 </v>
   <v>      -0.83700992      -0.67978160      -1.37536390 </v>
   <v>      -0.83700992      -0.67978160      -1.37536390 </v>
   <v>      -0.83700992      -0.67978160      -1.37536390 </v>
   <v>      -0.83700992      -0.67978160      -1.37536390 </v>
   <v>      -0.83700992      -0.67978160      -1.37536390 </v>
   <v>      -0.17999199       0.00414961      -0.07408948 </v>
   <v>      -0.17999199       0.00414961      -0.07408948 </v>
   <v>      -0.17999199       0.00414961      -0.07408948 </v>
   <v>      -0.17999199       0.00414961      -0.07408948 </v>
   <v>      -0.17999199       0.00414961      -0.07408948 </v>
   <v>      -0.17999199       0.00414961      -0.07408948 </v>
   <v>      -0.17999199       0.00414961      -0.07408948 </v>
   <v>      -0.17999199       0.00414961      -0.07408948 </v>
   <v>      -0.11974413       0.15299210       0.17223445 </v>
   <v>      -0.11974413       0.15299210       0.17223445 </v>
   <v>      -0.11974413       0.15299210       0.17223445 </v>
   <v>      -0.11974413       0.15299210       0.17223445 </v>
   <v>      -0.11974413       0.15299210       0.17223445 </v>
   <v>      -0.11974413       0.15299210       0.17223445 </v>
   <v>      -0.11974413       0.15299210       0.17223445 </v>
   <v>      -0.11974413       0.15299210       0.17223445 </v>
   <v>       0.65504795       0.64209114       1.23870113 </v>
   <v>       0.65504795       0.64209114       1.23870113 </v>
   <v>       0.65504795       0.64209114       1.23870113 </v>
   <v>       0.65504795       0.64209114       1.23870113 </v>
   <v>       0.65504795       0.64209114       1.23870113 </v>
   <v>       0.65504795       0.64209114       1.23870113 </v>
   <v>       0.65504795       0.64209114       1.23870113 </v>
   <v>       0.65504795       0.64209114       1.23870113 </v>
  </varray>
  <varray name="stress" >
   <v>      71.36558612     -11.11517468     -19.95434155 </v>
   <v>     -11.11517466      75.46203522     -10.70736305 </v>
   <v>     -19.95434152     -10.70736306      54.68368557 </v>
  </varray>
  <energy>
   <i name="e_fr_energy">   -876.43849143 </i>
   <i name="e_wo_entrp">   -876.43849143 </i>
   <i name="e_0_energy">   -876.43849143 </i>
  </energy>
  <time name="totalsc">   88.55   88.24</time>
 </calculation>
 <calculation>
  <scstep>
   <time name="dav">    5.22    5.22</time>
   <time name="total">    7.16    7.16</time>
   <energy>
    <i name="alphaZ">   1221.04105685 </i>
    <i name="ewald"> -11750.43131432 </i>
    <i name="hartreedc">  -1506.28318137 </i>
    <i name="XCdc">   1057.95115459 </i>
    <i name="pawpsdc">  37595.43841370 </i>
    <i name="pawaedc"> -37538.11163206 </i>
    <i name="eentropy">      0.00000000 </i>
    <i name="bandstr">   -320.36938657 </i>
    <i name="atom">  10363.97701633 </i>
    <i name="e_fr_energy">   -876.78787286 </i>
    <i name="e_wo_entrp">   -876.78787286 </i>
    <i name="e_0_energy">   -876.78787286 </i>
   </energy>
  </scstep>
  <scstep>
   <time name="diag">    1.07    1.07</time>
   <time name="diis">    4.54    4.50</time>
   <time name="orth">    0.03    0.03</time>
   <time name="total">    7.56    7.53</time>
   <energy>
    <i name="e_fr_energy">   -876.75812098 </i>
    <i name="e_wo_entrp">   -876.75812098 </i>
    <i name="e_0_energy">   -876.75812098 </i>
   </energy>
  </scstep>
  <scstep>
   <time name="diag">    1.06    1.06</time>
   <time name="diis">    4.48    4.46</time>
   <time name="orth">    0.03    0.03</time>
   <time name="total">    7.49    7.47</time>
   <energy>
    <i name="e_fr_energy">   -876.74507249 </i>
    <i name="e_wo_entrp">   -876.74507249 </i>
    <i name="e_0_energy">   -876.74507249 </i>
   </energy>
  </scstep>
  <scstep>
   <time name="diag">    1.07    1.07</time>
   <time name="diis">    4.52    4.49</time>
   <time name="orth">    0.03    0.03</time>
   <time name="total">    7.53    7.49</time>
   <energy>
    <i name="e_fr_energy">   -876.74544670 </i>
    <i name="e_wo_entrp">   -876.74544670 </i>
    <i name="e_0_energy">   -876.74544670 </i>
   </energy>
  </scstep>
  <scstep>
   <time name="diag">    1.06    1.06</time>
   <time name="diis">    4.52    4.48</time>
   <time name="orth">    0.03    0.03</time>
   <time name="total">    7.52    7.49</time>
   <energy>
    <i name="e_fr_energy">   -876.74557809 </i>
    <i name="e_wo_entrp">   -876.74557809 </i>
    <i name="e_0_energy">   -876.74557809 </i>
   </energy>
  </scstep>
  <scstep>
[...]
       <r>    -6.6861    25.0581    52.4646 </r>
       <r>    -6.5976    23.7787    54.5472 </r>
       <r>    -6.5091     4.7202    55.8385 </r>
       <r>    -6.4205    10.6745    56.6247 </r>
       <r>    -6.3320    12.6025    57.6270 </r>
       <r>    -6.2435    15.9476    58.8893 </r>
       <r>    -6.1549    19.2521    60.4482 </r>
       <r>    -6.0664    16.0711    62.1059 </r>
       <r>    -5.9779    10.8092    63.2277 </r>
       <r>    -5.8893     2.9993    63.9440 </r>
       <r>    -5.8008     0.0000    64.0000 </r>
       <r>    -5.7123     6.9518    64.1999 </r>
       <r>    -5.6237    26.4542    65.6526 </r>
       <r>    -5.5352    14.9550    67.4873 </r>
       <r>    -5.4467    11.9140    68.5847 </r>
       <r>    -5.3582    25.2154    70.0744 </r>
       <r>    -5.2696    52.5526    73.7823 </r>
       <r>    -5.1811     3.5894    76.0017 </r>
       <r>    -5.0926    19.5724    77.3356 </r>
       <r>    -5.0040    30.7107    79.5386 </r>
       <r>    -4.9155    33.9266    82.4384 </r>
       <r>    -4.8270    10.2818    84.1455 </r>
       <r>    -4.7384    41.3313    86.2978 </r>
       <r>    -4.6499     9.8849    87.8878 </r>
       <r>    -4.5614    14.3640    88.9832 </r>
       <r>    -4.4728    13.4857    90.2318 </r>
       <r>    -4.3843    19.3399    91.6080 </r>
       <r>    -4.2958    19.9223    93.7959 </r>
       <r>    -4.2072     8.8659    94.8793 </r>
       <r>    -4.1187     4.8557    95.4629 </r>
       <r>    -4.0302     2.6106    95.7883 </r>
       <r>    -3.9417     1.0565    95.9455 </r>
       <r>    -3.8531     0.1936    95.9957 </r>
       <r>    -3.7646     0.0000    96.0000 </r>
       <r>    -3.6761     0.5652    96.0067 </r>
       <r>    -3.5875     6.5621    96.3660 </r>
       <r>    -3.4990     9.5353    97.0751 </r>
       <r>    -3.4105    12.9187    98.0682 </r>
       <r>    -3.3219    13.1311    99.2153 </r>
       <r>    -3.2334    14.3493   100.4236 </r>
       <r>    -3.1449    16.6676   101.7885 </r>
       <r>    -3.0563    20.0906   103.4073 </r>
       <r>    -2.9678    27.0587   105.5221 </r>
       <r>    -2.8793    19.1209   107.3623 </r>
       <r>    -2.7908    14.9132   109.0686 </r>
       <r>    -2.7022    23.1814   110.3640 </r>
       <r>    -2.6137    26.3942   112.8301 </r>
       <r>    -2.5252    22.1924   115.3153 </r>
       <r>    -2.4366    16.5742   116.7712 </r>
       <r>    -2.3481    31.1698   118.7471 </r>
       <r>    -2.2596     8.5770   120.5110 </r>
       <r>    -2.1710    33.0644   122.5247 </r>
       <r>    -2.0825    24.7129   124.4850 </r>
       <r>    -1.9940    39.2149   127.3120 </r>
       <r>    -1.9054    31.4213   129.9070 </r>
       <r>    -1.8169    23.7501   132.3548 </r>
       <r>    -1.7284    36.6894   134.9258 </r>
       <r>    -1.6398    48.5440   138.7749 </r>
       <r>    -1.5513    39.6687   142.8467 </r>
       <r>    -1.4628    25.2276   145.6665 </r>
       <r>    -1.3743    24.2961   147.9287 </r>
       <r>    -1.2857    20.4133   149.9577 </r>
       <r>    -1.1972    10.2767   151.2872 </r>
       <r>    -1.1087    35.1475   152.6384 </r>
       <r>    -1.0201    20.0447   155.6362 </r>
       <r>    -0.9316    62.1006   158.9988 </r>
       <r>    -0.8431    33.5769   163.3417 </r>
       <r>    -0.7545    20.9147   165.8037 </r>
       <r>    -0.6660    23.0063   167.6109 </r>
       <r>    -0.5775    43.7237   170.4602 </r>
       <r>    -0.4889    31.8770   174.3493 </r>
       <r>    -0.4004    23.4934   176.5634 </r>
       <r>    -0.3119    23.6511   178.5958 </r>
       <r>    -0.2234    28.4452   180.8994 </r>
       <r>    -0.1348    24.7014   183.3285 </r>
       <r>    -0.0463    19.3051   185.2092 </r>
       <r>     0.0422    23.6730   188.0083 </r>
       <r>     0.1308    28.7759   189.0056 </r>
       <r>     0.2193    67.2506   194.2321 </r>
       <r>     0.3078    32.3021   199.1157 </r>
       <r>     0.3964    23.8249   201.3064 </r>
       <r>     0.4849    32.4280   203.9829 </r>
       <r>     0.5734    25.7825   206.1873 </r>
       <r>     0.6620    34.7726   209.1077 </r>
       <r>     0.7505    29.1850   211.9723 </r>
       <r>     0.8390    23.7103   214.0582 </r>
       <r>     0.9276    26.6968   216.3630 </r>
       <r>     1.0161    33.7145   218.9543 </r>
       <r>     1.1046    55.1571   223.0369 </r>
       <r>     1.1931    43.6642   227.0441 </r>
       <r>     1.2817    43.4010   230.8300 </r>
       <r>     1.3702    42.2582   234.7258 </r>
       <r>     1.4587    15.0501   237.2231 </r>
       <r>     1.5473    38.1482   239.1419 </r>
       <r>     1.6358    29.3149   242.1686 </r>
       <r>     1.7243    34.5270   245.1589 </r>
       <r>     1.8129    46.2681   249.3878 </r>
       <r>     1.9014    32.0099   252.8157 </r>
       <r>     1.9899    26.9005   255.4468 </r>
       <r>     2.0785    60.6423   259.7822 </r>
       <r>     2.1670    85.9485   265.0182 </r>
       <r>     2.2555    52.9652   268.7003 </r>
       <r>     2.3440    52.0195   272.5451 </r>
       <r>     2.4326    17.7567   275.3777 </r>
       <r>     2.5211    72.3472   278.6756 </r>
       <r>     2.6096    63.9465   283.4052 </r>
       <r>     2.6982    49.5867   287.7328 </r>
       <r>     2.7867    48.3264   291.8118 </r>
       <r>     2.8752    38.5559   295.7186 </r>
       <r>     2.9638    33.7787   300.5771 </r>
       <r>     3.0523    35.8876   302.8255 </r>
       <r>     3.1408    61.0673   307.3336 </r>
       <r>     3.2294    64.3447   312.9613 </r>
       <r>     3.3179    43.1654   316.4243 </r>
       <r>     3.4064    52.6076   320.3510 </r>
       <r>     3.4949    37.5603   324.9246 </r>
       <r>     3.5835    34.0336   328.0308 </r>
       <r>     3.6720    28.4972   330.8017 </r>
       <r>     3.7605    28.7834   333.5440 </r>
       <r>     3.8491    44.8988   336.3633 </r>
       <r>     3.9376    55.4407   341.2965 </r>
       <r>     4.0261    41.3287   345.9992 </r>
       <r>     4.1147    34.3147   349.7928 </r>
       <r>     4.2032    49.3205   352.1837 </r>
       <r>     4.2917    92.1013   357.3586 </r>
       <r>     4.3803    27.9363   364.1172 </r>
       <r>     4.4688    23.9032   366.4942 </r>
       <r>     4.5573    34.3843   368.9518 </r>
       <r>     4.6459    40.8963   372.2762 </r>
       <r>     4.7344    43.7104   375.8897 </r>
       <r>     4.8229    29.7287   379.0065 </r>
       <r>     4.9114    23.2877   381.4071 </r>
       <r>     5.0000    12.3173   382.9913 </r>
       <r>     5.0885     4.6775   383.6910 </r>
       <r>     5.1770     1.2197   383.9177 </r>
       <r>     5.2656     0.3863   383.9853 </r>
       <r>     5.3541     0.0192   383.9998 </r>
       <r>     5.4426     0.0000   384.0000 </r>
       <r>     5.5312     0.0000   384.0000 </r>
       <r>     5.6197     0.0000   384.0000 </r>
       <r>     5.7082     0.0000   384.0000 </r>
       <r>     5.7968     0.0000   384.0000 </r>
       <r>     5.8853     0.0000   384.0000 </r>
       <r>     5.9738     0.0000   384.0000 </r>
       <r>     6.0623     0.0000   384.0000 </r>
       <r>     6.1509     0.0000   384.0000 </r>
       <r>     6.2394     0.0000   384.0000 </r>
       <r>     6.3279     0.0000   384.0000 </r>
       <r>     6.4165     0.0000   384.0000 </r>
       <r>     6.5050     0.0000   384.0000 </r>
       <r>     6.5935     0.0000   384.0000 </r>
       <r>     6.6821     0.0000   384.0000 </r>
       <r>     6.7706     0.0000   384.0000 </r>
       <r>     6.8591     0.0000   384.0000 </r>
       <r>     6.9477     0.0000   384.0000 </r>
       <r>     7.0362     0.0000   384.0000 </r>
       <r>     7.1247     0.0000   384.0000 </r>
       <r>     7.2133     0.0000   384.0000 </r>
       <r>     7.3018     0.0000   384.0000 </r>
       <r>     7.3903     0.0000   384.0000 </r>
       <r>     7.4788     0.0000   384.0000 </r>
       <r>     7.5674     0.0000   384.0000 </r>
       <r>     7.6559     0.0000   384.0000 </r>
       <r>     7.7444     0.0000   384.0000 </r>
       <r>     7.8330     0.0000   384.0000 </r>
       <r>     7.9215     0.0000   384.0000 </r>
       <r>     8.0100     0.0000   384.0000 </r>
       <r>     8.0986     0.0000   384.0000 </r>
       <r>     8.1871     0.0000   384.0000 </r>
       <r>     8.2756     0.0310   384.0003 </r>
       <r>     8.3642     1.3650   384.0445 </r>
       <r>     8.4527     5.3042   384.3199 </r>
       <r>     8.5412    13.0962   385.0665 </r>
       <r>     8.6297    32.4414   387.4119 </r>
       <r>     8.7183    18.4122   389.5927 </r>
       <r>     8.8068    36.8195   393.0126 </r>
       <r>     8.8953    20.0996   395.0094 </r>
       <r>     8.9839    16.6534   396.6738 </r>
       <r>     9.0724    20.3080   398.1232 </r>
       <r>     9.1609    31.8778   400.3083 </r>
       <r>     9.2495    28.2214   402.8486 </r>
       <r>     9.3380    29.0265   405.4511 </r>
       <r>     9.4265    34.2597   408.3293 </r>
       <r>     9.5151    26.0387   411.0486 </r>
       <r>     9.6036    25.7585   413.2520 </r>
       <r>     9.6921    26.8058   415.6652 </r>
       <r>     9.7807    26.4039   417.9951 </r>
       <r>     9.8692    40.0108   420.8395 </r>
       <r>     9.9577    41.1992   424.7124 </r>
       <r>    10.0462    16.6224   427.0401 </r>
       <r>    10.1348    46.5331   430.7674 </r>
       <r>    10.2233    27.2992   433.3635 </r>
       <r>    10.3118    27.4672   435.8025 </r>
       <r>    10.4004    34.9810   438.0944 </r>
       <r>    10.4889    28.8381   440.1173 </r>
       <r>    10.5774    22.2413   442.4949 </r>
       <r>    10.6660    26.8950   444.6317 </r>
       <r>    10.7545    37.1048   447.7756 </r>
       <r>    10.8430    18.1091   450.0067 </r>
       <r>    10.9316    19.9349   451.5757 </r>
       <r>    11.0201    19.1267   453.3742 </r>
       <r>    11.1086    26.1231   455.3256 </r>
       <r>    11.1971    25.9313   457.8039 </r>
       <r>    11.2857    20.9421   459.8649 </r>
       <r>    11.3742    16.4222   461.5055 </r>
       <r>    11.4627    25.7551   463.3714 </r>
       <r>    11.5513    27.1619   465.7335 </r>
       <r>    11.6398    26.5336   468.1288 </r>
       <r>    11.7283    22.8898   470.3459 </r>
       <r>    11.8169    19.4974   472.1554 </r>
       <r>    11.9054    18.3845   473.8285 </r>
       <r>    11.9939    19.9898   475.4885 </r>
       <r>    12.0825    25.4933   477.4943 </r>
       <r>    12.1710    26.3719   479.8189 </r>
       <r>    12.2595    25.0934   482.1015 </r>
       <r>    12.3481    20.0210   484.0516 </r>
       <r>    12.4366    27.6247   485.9097 </r>
       <r>    12.5251    38.7763   488.1899 </r>
       <r>    12.6136    54.2636   492.4481 </r>
       <r>    12.7022    13.3906   494.9336 </r>
       <r>    12.7907    17.6917   496.1568 </r>
       <r>    12.8792    34.2390   498.9524 </r>
       <r>    12.9678    26.1698   501.4836 </r>
       <r>    13.0563     7.3351   503.9669 </r>
       <r>    13.1448    55.6173   504.5796 </r>
       <r>    13.2334     1.8826   506.0000 </r>
       <r>    13.3219     0.0000   506.0000 </r>
       <r>    13.4104     0.0000   506.0000 </r>
       <r>    13.4990     0.0000   506.0000 </r>
       <r>    13.5875     0.0000   506.0000 </r>
       <r>    13.6760     0.0000   506.0000 </r>
       <r>    13.7645     0.0000   506.0000 </r>
       <r>    13.8531     0.0000   506.0000 </r>
       <r>    13.9416     0.0000   506.0000 </r>
       <r>    14.0301     0.0000   506.0000 </r>
       <r>    14.1187     0.0000   506.0000 </r>
       <r>    14.2072     0.0000   506.0000 </r>
       <r>    14.2957     0.0000   506.0000 </r>
       <r>    14.3843     0.0000   506.0000 </r>
      </set>
     </set>
    </array>
   </total>
  </dos>
 </calculation>
 <structure name="finalpos" >
  <crystal>
   <varray name="basis" >
    <v>       9.11771582       0.04103992       4.12356598 </v>
    <v>       2.61063086       9.02040670       4.26609554 </v>
    <v>      -0.08414976       0.10342544      10.31333563 </v>
   </varray>
   <i name="volume">    847.32628751 </i>
   <varray name="rec_basis" >
    <v>       0.10927226      -0.03219929       0.00121449 </v>
    <v>       0.00000380       0.11138691      -0.00111699 </v>
    <v>      -0.04369174      -0.03320083       0.09693829 </v>
   </varray>
  </crystal>
  <varray name="positions" >
   <v>       0.15769400       0.40448840       0.40448840 </v>
   <v>       0.15769400       0.40448840       0.90448840 </v>
   <v>       0.15769400       0.90448840       0.40448840 </v>
   <v>       0.15769400       0.90448840       0.90448840 </v>
   <v>       0.65769400       0.40448840       0.40448840 </v>
   <v>       0.65769400       0.40448840       0.90448840 </v>
   <v>       0.65769400       0.90448840       0.40448840 </v>
   <v>       0.65769400       0.90448840       0.90448840 </v>
   <v>       0.40128648       0.40116716       0.15806360 </v>
   <v>       0.40128648       0.40116716       0.65806360 </v>
   <v>       0.40128648       0.90116716       0.15806360 </v>
   <v>       0.40128648       0.90116716       0.65806360 </v>
   <v>       0.90128648       0.40116716       0.15806360 </v>
   <v>       0.90128648       0.40116716       0.65806360 </v>
   <v>       0.90128648       0.90116716       0.15806360 </v>
   <v>       0.90128648       0.90116716       0.65806360 </v>
   <v>       0.40128648       0.15806360       0.40116716 </v>
   <v>       0.40128648       0.15806360       0.90116716 </v>
   <v>       0.40128648       0.65806360       0.40116716 </v>
   <v>       0.40128648       0.65806360       0.90116716 </v>
   <v>       0.90128648       0.15806360       0.40116716 </v>
   <v>       0.90128648       0.15806360       0.90116716 </v>
   <v>       0.90128648       0.65806360       0.40116716 </v>
   <v>       0.90128648       0.65806360       0.90116716 </v>
   <v>       0.34232235       0.09578421       0.09578421 </v>
   <v>       0.34232235       0.09578421       0.59578421 </v>
   <v>       0.34232235       0.59578421       0.09578421 </v>
   <v>       0.34232235       0.59578421       0.59578421 </v>
   <v>       0.84232235       0.09578421       0.09578421 </v>
   <v>       0.84232235       0.09578421       0.59578421 </v>
   <v>       0.84232235       0.59578421       0.09578421 </v>
   <v>       0.84232235       0.59578421       0.59578421 </v>
   <v>       0.09927824       0.09788530       0.34338251 </v>
   <v>       0.09927824       0.09788530       0.84338251 </v>
   <v>       0.09927824       0.59788530       0.34338251 </v>
   <v>       0.09927824       0.59788530       0.84338251 </v>
   <v>       0.59927824       0.09788530       0.34338251 </v>
   <v>       0.59927824       0.09788530       0.84338251 </v>
   <v>       0.59927824       0.59788530       0.34338251 </v>
   <v>       0.59927824       0.59788530       0.84338251 </v>
   <v>       0.09927824       0.34338251       0.09788530 </v>
   <v>       0.09927824       0.34338251       0.59788530 </v>
   <v>       0.09927824       0.84338251       0.09788530 </v>
   <v>       0.09927824       0.84338251       0.59788530 </v>
   <v>       0.59927824       0.34338251       0.09788530 </v>
   <v>       0.59927824       0.34338251       0.59788530 </v>
   <v>       0.59927824       0.84338251       0.09788530 </v>
   <v>       0.59927824       0.84338251       0.59788530 </v>
   <v>       0.49380487       0.49818098       0.33714571 </v>
   <v>       0.49380487       0.49818098       0.83714571 </v>
   <v>       0.49380487       0.99818098       0.33714571 </v>
   <v>       0.49380487       0.99818098       0.83714571 </v>
   <v>       0.99380487       0.49818098       0.33714571 </v>
   <v>       0.99380487       0.49818098       0.83714571 </v>
   <v>       0.99380487       0.99818098       0.33714571 </v>
   <v>       0.99380487       0.99818098       0.83714571 </v>
   <v>       0.49380487       0.33714571       0.49818098 </v>
   <v>       0.49380487       0.33714571       0.99818098 </v>
   <v>       0.49380487       0.83714571       0.49818098 </v>
   <v>       0.49380487       0.83714571       0.99818098 </v>
   <v>       0.99380487       0.33714571       0.49818098 </v>
   <v>       0.99380487       0.33714571       0.99818098 </v>
   <v>       0.99380487       0.83714571       0.49818098 </v>
   <v>       0.99380487       0.83714571       0.99818098 </v>
   <v>       0.17079435       0.00351659       0.00351659 </v>
   <v>       0.17079435       0.00351659       0.50351659 </v>
   <v>       0.17079435       0.50351659       0.00351659 </v>
   <v>       0.17079435       0.50351659       0.50351659 </v>
   <v>       0.67079435       0.00351659       0.00351659 </v>
   <v>       0.67079435       0.00351659       0.50351659 </v>
   <v>       0.67079435       0.50351659       0.00351659 </v>
   <v>       0.67079435       0.50351659       0.50351659 </v>
   <v>       0.00461788       0.00234253       0.16485599 </v>
   <v>       0.00461788       0.00234253       0.66485599 </v>
   <v>       0.00461788       0.50234253       0.16485599 </v>
   <v>       0.00461788       0.50234253       0.66485599 </v>
   <v>       0.50461788       0.00234253       0.16485599 </v>
   <v>       0.50461788       0.00234253       0.66485599 </v>
   <v>       0.50461788       0.50234253       0.16485599 </v>
   <v>       0.50461788       0.50234253       0.66485599 </v>
   <v>       0.00461788       0.16485599       0.00234253 </v>
   <v>       0.00461788       0.16485599       0.50234253 </v>
   <v>       0.00461788       0.66485599       0.00234253 </v>
   <v>       0.00461788       0.66485599       0.50234253 </v>
   <v>       0.50461788       0.16485599       0.00234253 </v>
   <v>       0.50461788       0.16485599       0.50234253 </v>
   <v>       0.50461788       0.66485599       0.00234253 </v>
   <v>       0.50461788       0.66485599       0.50234253 </v>
   <v>       0.24573120       0.24913772       0.24913772 </v>
   <v>       0.24573120       0.24913772       0.74913772 </v>
   <v>       0.24573120       0.74913772       0.24913772 </v>
   <v>       0.24573120       0.74913772       0.74913772 </v>
   <v>       0.74573120       0.24913772       0.24913772 </v>
   <v>       0.74573120       0.24913772       0.74913772 </v>
   <v>       0.74573120       0.74913772       0.24913772 </v>
   <v>       0.74573120       0.74913772       0.74913772 </v>
   <v>       0.33936514       0.49749139       0.49749139 </v>
   <v>       0.33936514       0.49749139       0.99749139 </v>
   <v>       0.33936514       0.99749139       0.49749139 </v>
   <v>       0.33936514       0.99749139       0.99749139 </v>
   <v>       0.83936514       0.49749139       0.49749139 </v>
   <v>       0.83936514       0.49749139       0.99749139 </v>
   <v>       0.83936514       0.99749139       0.49749139 </v>
   <v>       0.83936514       0.99749139       0.99749139 </v>
   <v>       0.30378138       0.31013444       0.31013444 </v>
   <v>       0.30378138       0.31013444       0.81013444 </v>
   <v>       0.30378138       0.81013444       0.31013444 </v>
   <v>       0.30378138       0.81013444       0.81013444 </v>
   <v>       0.80378138       0.31013444       0.31013444 </v>
   <v>       0.80378138       0.31013444       0.81013444 </v>
   <v>       0.80378138       0.81013444       0.31013444 </v>
   <v>       0.80378138       0.81013444       0.81013444 </v>
   <v>       0.19233665       0.18642447       0.18642447 </v>
   <v>       0.19233665       0.18642447       0.68642447 </v>
   <v>       0.19233665       0.68642447       0.18642447 </v>
   <v>       0.19233665       0.68642447       0.68642447 </v>
   <v>       0.69233665       0.18642447       0.18642447 </v>
   <v>       0.69233665       0.18642447       0.68642447 </v>
   <v>       0.69233665       0.68642447       0.18642447 </v>
   <v>       0.69233665       0.68642447       0.68642447 </v>
  </varray>
 </structure>
</modeling>
