unknown system                          
            1
     9.145757    0.049682    4.148805
     2.649707    9.007649    4.242553
    -0.050925    0.071306   10.302924
   B    C 
    96    24
unknown system                          
            1
     9.145757    0.049682    4.148805
     2.649707    9.007649    4.242553
    -0.050925    0.071306   10.302924
   B    C 
    96    24
Direct configuration=     1
   0.15792300  0.40375800  0.40375800
   0.15792300  0.40375800  0.90375800
   0.15792300  0.90375800  0.40375800
   0.15792300  0.90375800  0.90375800
   0.65792300  0.40375800  0.40375800
   0.65792300  0.40375800  0.90375800
   0.65792300  0.90375800  0.40375800
   0.65792300  0.90375800  0.90375800
   0.40163200  0.40233800  0.15722000
   0.40163200  0.40233800  0.65722000
   0.40163200  0.90233800  0.15722000
   0.40163200  0.90233800  0.65722000
   0.90163200  0.40233800  0.15722000
   0.90163200  0.40233800  0.65722000
   0.90163200  0.90233800  0.15722000
   0.90163200  0.90233800  0.65722000
   0.40163200  0.15722000  0.40233800
   0.40163200  0.15722000  0.90233800
   0.40163200  0.65722000  0.40233800
   0.40163200  0.65722000  0.90233800
   0.90163200  0.15722000  0.40233800
   0.90163200  0.15722000  0.90233800
   0.90163200  0.65722000  0.40233800
   0.90163200  0.65722000  0.90233800
   0.34136600  0.09666500  0.09666500
   0.34136600  0.09666500  0.59666500
   0.34136600  0.59666500  0.09666500
   0.34136600  0.59666500  0.59666500
   0.84136600  0.09666500  0.09666500
   0.84136600  0.09666500  0.59666500
   0.84136600  0.59666500  0.09666500
   0.84136600  0.59666500  0.59666500
   0.09870000  0.09683600  0.34371100
   0.09870000  0.09683600  0.84371100
   0.09870000  0.59683600  0.34371100
   0.09870000  0.59683600  0.84371100
   0.59870000  0.09683600  0.34371100
   0.59870000  0.09683600  0.84371100
   0.59870000  0.59683600  0.34371100
   0.59870000  0.59683600  0.84371100
   0.09870000  0.34371100  0.09683600
   0.09870000  0.34371100  0.59683600
   0.09870000  0.84371100  0.09683600
   0.09870000  0.84371100  0.59683600
   0.59870000  0.34371100  0.09683600
   0.59870000  0.34371100  0.59683600
   0.59870000  0.84371100  0.09683600
   0.59870000  0.84371100  0.59683600
   0.49444700  0.49739900  0.33679800
   0.49444700  0.49739900  0.83679800
   0.49444700  0.99739900  0.33679800
   0.49444700  0.99739900  0.83679800
   0.99444700  0.49739900  0.33679800
   0.99444700  0.49739900  0.83679800
   0.99444700  0.99739900  0.33679800
   0.99444700  0.99739900  0.83679800
   0.49444700  0.33679800  0.49739900
   0.49444700  0.33679800  0.99739900
   0.49444700  0.83679800  0.49739900
   0.49444700  0.83679800  0.99739900
   0.99444700  0.33679800  0.49739900
   0.99444700  0.33679800  0.99739900
   0.99444700  0.83679800  0.49739900
   0.99444700  0.83679800  0.99739900
   0.17079500  0.00295000  0.00295000
   0.17079500  0.00295000  0.50295000
   0.17079500  0.50295000  0.00295000
   0.17079500  0.50295000  0.50295000
   0.67079500  0.00295000  0.00295000
   0.67079500  0.00295000  0.50295000
   0.67079500  0.50295000  0.00295000
   0.67079500  0.50295000  0.50295000
   0.00347500  0.00275500  0.16436200
   0.00347500  0.00275500  0.66436200
   0.00347500  0.50275500  0.16436200
   0.00347500  0.50275500  0.66436200
   0.50347500  0.00275500  0.16436200
   0.50347500  0.00275500  0.66436200
   0.50347500  0.50275500  0.16436200
   0.50347500  0.50275500  0.66436200
   0.00347500  0.16436200  0.00275500
   0.00347500  0.16436200  0.50275500
   0.00347500  0.66436200  0.00275500
   0.00347500  0.66436200  0.50275500
   0.50347500  0.16436200  0.00275500
   0.50347500  0.16436200  0.50275500
   0.50347500  0.66436200  0.00275500
   0.50347500  0.66436200  0.50275500
   0.24799500  0.24900900  0.24900900
   0.24799500  0.24900900  0.74900900
   0.24799500  0.74900900  0.24900900
   0.24799500  0.74900900  0.74900900
   0.74799500  0.24900900  0.24900900
   0.74799500  0.24900900  0.74900900
   0.74799500  0.74900900  0.24900900
   0.74799500  0.74900900  0.74900900
   0.33833600  0.49792800  0.49792800
   0.33833600  0.49792800  0.99792800
   0.33833600  0.99792800  0.49792800
   0.33833600  0.99792800  0.99792800
   0.83833600  0.49792800  0.49792800
   0.83833600  0.49792800  0.99792800
   0.83833600  0.99792800  0.49792800
   0.83833600  0.99792800  0.99792800
   0.30608800  0.30943700  0.30943700
   0.30608800  0.30943700  0.80943700
   0.30608800  0.80943700  0.30943700
   0.30608800  0.80943700  0.80943700
   0.80608800  0.30943700  0.30943700
   0.80608800  0.30943700  0.80943700
   0.80608800  0.80943700  0.30943700
   0.80608800  0.80943700  0.80943700
   0.19098900  0.18883500  0.18883500
   0.19098900  0.18883500  0.68883500
   0.19098900  0.68883500  0.18883500
   0.19098900  0.68883500  0.68883500
   0.69098900  0.18883500  0.18883500
   0.69098900  0.18883500  0.68883500
   0.69098900  0.68883500  0.18883500
   0.69098900  0.68883500  0.68883500
unknown system                          
            1
     9.135225    0.056373    4.153978
     2.646158    9.013920    4.263391
    -0.050993    0.089095   10.315951
   B    C 
    96    24
Direct configuration=     2
   0.15828184  0.40349709  0.40349709
   0.15828184  0.40349709  0.90349709
   0.15828184  0.90349709  0.40349709
   0.15828184  0.90349709  0.90349709
   0.65828184  0.40349709  0.40349709
   0.65828184  0.40349709  0.90349709
   0.65828184  0.90349709  0.40349709
   0.65828184  0.90349709  0.90349709
   0.40089406  0.40138278  0.15811913
   0.40089406  0.40138278  0.65811913
   0.40089406  0.90138278  0.15811913
   0.40089406  0.90138278  0.65811913
   0.90089406  0.40138278  0.15811913
   0.90089406  0.40138278  0.65811913
   0.90089406  0.90138278  0.15811913
   0.90089406  0.90138278  0.65811913
   0.40089406  0.15811913  0.40138278
   0.40089406  0.15811913  0.90138278
   0.40089406  0.65811913  0.40138278
   0.40089406  0.65811913  0.90138278
   0.90089406  0.15811913  0.40138278
   0.90089406  0.15811913  0.90138278
   0.90089406  0.65811913  0.40138278
   0.90089406  0.65811913  0.90138278
   0.34082137  0.09702858  0.09702858
   0.34082137  0.09702858  0.59702858
   0.34082137  0.59702858  0.09702858
   0.34082137  0.59702858  0.59702858
   0.84082137  0.09702858  0.09702858
   0.84082137  0.09702858  0.59702858
   0.84082137  0.59702858  0.09702858
   0.84082137  0.59702858  0.59702858
   0.09933855  0.09762738  0.34328007
   0.09933855  0.09762738  0.84328007
   0.09933855  0.59762738  0.34328007
   0.09933855  0.59762738  0.84328007
   0.59933855  0.09762738  0.34328007
   0.59933855  0.09762738  0.84328007
   0.59933855  0.59762738  0.34328007
   0.59933855  0.59762738  0.84328007
   0.09933855  0.34328007  0.09762738
   0.09933855  0.34328007  0.59762738
   0.09933855  0.84328007  0.09762738
   0.09933855  0.84328007  0.59762738
   0.59933855  0.34328007  0.09762738
   0.59933855  0.34328007  0.59762738
   0.59933855  0.84328007  0.09762738
   0.59933855  0.84328007  0.59762738
   0.49411001  0.49740471  0.33677653
   0.49411001  0.49740471  0.83677653
   0.49411001  0.99740471  0.33677653
   0.49411001  0.99740471  0.83677653
   0.99411001  0.49740471  0.33677653
   0.99411001  0.49740471  0.83677653
   0.99411001  0.99740471  0.33677653
   0.99411001  0.99740471  0.83677653
   0.49411001  0.33677653  0.49740471
   0.49411001  0.33677653  0.99740471
   0.49411001  0.83677653  0.49740471
   0.49411001  0.83677653  0.99740471
   0.99411001  0.33677653  0.49740471
   0.99411001  0.33677653  0.99740471
   0.99411001  0.83677653  0.49740471
   0.99411001  0.83677653  0.99740471
   0.16998868  0.00337087  0.00337087
   0.16998868  0.00337087  0.50337087
   0.16998868  0.50337087  0.00337087
   0.16998868  0.50337087  0.50337087
   0.66998868  0.00337087  0.00337087
   0.66998868  0.00337087  0.50337087
   0.66998868  0.50337087  0.00337087
   0.66998868  0.50337087  0.50337087
   0.00400367  0.00295964  0.16463458
   0.00400367  0.00295964  0.66463458
   0.00400367  0.50295964  0.16463458
   0.00400367  0.50295964  0.66463458
   0.50400367  0.00295964  0.16463458
   0.50400367  0.00295964  0.66463458
   0.50400367  0.50295964  0.16463458
   0.50400367  0.50295964  0.66463458
   0.00400367  0.16463458  0.00295964
   0.00400367  0.16463458  0.50295964
   0.00400367  0.66463458  0.00295964
   0.00400367  0.66463458  0.50295964
   0.50400367  0.16463458  0.00295964
   0.50400367  0.16463458  0.50295964
   0.50400367  0.66463458  0.00295964
   0.50400367  0.66463458  0.50295964
   0.24824602  0.24978549  0.24978549
   0.24824602  0.24978549  0.74978549
   0.24824602  0.74978549  0.24978549
   0.24824602  0.74978549  0.74978549
   0.74824602  0.24978549  0.24978549
   0.74824602  0.24978549  0.74978549
   0.74824602  0.74978549  0.24978549
   0.74824602  0.74978549  0.74978549
   0.33940432  0.49760780  0.49760780
   0.33940432  0.49760780  0.99760780
   0.33940432  0.99760780  0.49760780
   0.33940432  0.99760780  0.99760780
   0.83940432  0.49760780  0.49760780
   0.83940432  0.49760780  0.99760780
   0.83940432  0.99760780  0.49760780
   0.83940432  0.99760780  0.99760780
   0.30630500  0.30978984  0.30978984
   0.30630500  0.30978984  0.80978984
   0.30630500  0.80978984  0.30978984
   0.30630500  0.80978984  0.80978984
   0.80630500  0.30978984  0.30978984
   0.80630500  0.30978984  0.80978984
   0.80630500  0.80978984  0.30978984
   0.80630500  0.80978984  0.80978984
   0.19026020  0.18673652  0.18673652
   0.19026020  0.18673652  0.68673652
   0.19026020  0.68673652  0.18673652
   0.19026020  0.68673652  0.68673652
   0.69026020  0.18673652  0.18673652
   0.69026020  0.18673652  0.68673652
   0.69026020  0.68673652  0.18673652
   0.69026020  0.68673652  0.68673652
unknown system                          
            1
     9.142263    0.051900    4.150518
     2.648530    9.009725    4.249459
    -0.050948    0.077202   10.307239
   B    C 
    96    24
Direct configuration=     3
   0.15804182  0.40367123  0.40367123
   0.15804182  0.40367123  0.90367123
   0.15804182  0.90367123  0.40367123
   0.15804182  0.90367123  0.90367123
   0.65804182  0.40367123  0.40367123
   0.65804182  0.40367123  0.90367123
   0.65804182  0.90367123  0.40367123
   0.65804182  0.90367123  0.90367123
   0.40138809  0.40202175  0.15751682
   0.40138809  0.40202175  0.65751682
   0.40138809  0.90202175  0.15751682
   0.40138809  0.90202175  0.65751682
   0.90138809  0.40202175  0.15751682
   0.90138809  0.40202175  0.65751682
   0.90138809  0.90202175  0.15751682
   0.90138809  0.90202175  0.65751682
   0.40138809  0.15751682  0.40202175
   0.40138809  0.15751682  0.90202175
   0.40138809  0.65751682  0.40202175
   0.40138809  0.65751682  0.90202175
   0.90138809  0.15751682  0.40202175
   0.90138809  0.15751682  0.90202175
   0.90138809  0.65751682  0.40202175
   0.90138809  0.65751682  0.90202175
   0.34118569  0.09678589  0.09678589
   0.34118569  0.09678589  0.59678589
   0.34118569  0.59678589  0.09678589
   0.34118569  0.59678589  0.59678589
   0.84118569  0.09678589  0.09678589
   0.84118569  0.09678589  0.59678589
   0.84118569  0.59678589  0.09678589
   0.84118569  0.59678589  0.59678589
   0.09891094  0.09709843  0.34356932
   0.09891094  0.09709843  0.84356932
   0.09891094  0.59709843  0.34356932
   0.09891094  0.59709843  0.84356932
   0.59891094  0.09709843  0.34356932
   0.59891094  0.09709843  0.84356932
   0.59891094  0.59709843  0.34356932
   0.59891094  0.59709843  0.84356932
   0.09891094  0.34356932  0.09709843
   0.09891094  0.34356932  0.59709843
   0.09891094  0.84356932  0.09709843
   0.09891094  0.84356932  0.59709843
   0.59891094  0.34356932  0.09709843
   0.59891094  0.34356932  0.59709843
   0.59891094  0.84356932  0.09709843
   0.59891094  0.84356932  0.59709843
   0.49433561  0.49740070  0.33679071
   0.49433561  0.49740070  0.83679071
   0.49433561  0.99740070  0.33679071
   0.49433561  0.99740070  0.83679071
   0.99433561  0.49740070  0.33679071
   0.99433561  0.49740070  0.83679071
   0.99433561  0.99740070  0.33679071
   0.99433561  0.99740070  0.83679071
   0.49433561  0.33679071  0.49740070
   0.49433561  0.33679071  0.99740070
   0.49433561  0.83679071  0.49740070
   0.49433561  0.83679071  0.99740070
   0.99433561  0.33679071  0.49740070
   0.99433561  0.33679071  0.99740070
   0.99433561  0.83679071  0.49740070
   0.99433561  0.83679071  0.99740070
   0.17052814  0.00308985  0.00308985
   0.17052814  0.00308985  0.50308985
   0.17052814  0.50308985  0.00308985
   0.17052814  0.50308985  0.50308985
   0.67052814  0.00308985  0.00308985
   0.67052814  0.00308985  0.50308985
   0.67052814  0.50308985  0.00308985
   0.67052814  0.50308985  0.50308985
   0.00364957  0.00282355  0.16445301
   0.00364957  0.00282355  0.66445301
   0.00364957  0.50282355  0.16445301
   0.00364957  0.50282355  0.66445301
   0.50364957  0.00282355  0.16445301
   0.50364957  0.00282355  0.66445301
   0.50364957  0.50282355  0.16445301
   0.50364957  0.50282355  0.66445301
   0.00364957  0.16445301  0.00282355
   0.00364957  0.16445301  0.50282355
   0.00364957  0.66445301  0.00282355
   0.00364957  0.66445301  0.50282355
   0.50364957  0.16445301  0.00282355
   0.50364957  0.16445301  0.50282355
   0.50364957  0.66445301  0.00282355
   0.50364957  0.66445301  0.50282355
   0.24807738  0.24926788  0.24926788
   0.24807738  0.24926788  0.74926788
   0.24807738  0.74926788  0.24926788
   0.24807738  0.74926788  0.74926788
   0.74807738  0.24926788  0.24926788
   0.74807738  0.24926788  0.74926788
   0.74807738  0.74926788  0.24926788
   0.74807738  0.74926788  0.74926788
   0.33868939  0.49782183  0.49782183
   0.33868939  0.49782183  0.99782183
   0.33868939  0.99782183  0.49782183
   0.33868939  0.99782183  0.99782183
   0.83868939  0.49782183  0.49782183
   0.83868939  0.49782183  0.99782183
   0.83868939  0.99782183  0.49782183
   0.83868939  0.99782183  0.99782183
   0.30615946  0.30955469  0.30955469
   0.30615946  0.30955469  0.80955469
   0.30615946  0.80955469  0.30955469
   0.30615946  0.80955469  0.80955469
   0.80615946  0.30955469  0.30955469
   0.80615946  0.30955469  0.80955469
   0.80615946  0.80955469  0.30955469
   0.80615946  0.80955469  0.80955469
   0.19074970  0.18813533  0.18813533
   0.19074970  0.18813533  0.68813533
   0.19074970  0.68813533  0.18813533
   0.19074970  0.68813533  0.68813533
   0.69074970  0.18813533  0.18813533
   0.69074970  0.18813533  0.68813533
   0.69074970  0.68813533  0.18813533
   0.69074970  0.68813533  0.68813533
unknown system                          
            1
     9.130598    0.047891    4.139409
     2.634362    9.014904    4.253082
    -0.064508    0.084392   10.309498
   B    C 
    96    24
Direct configuration=     4
   0.15802702  0.40374322  0.40374322
   0.15802702  0.40374322  0.90374322
   0.15802702  0.90374322  0.40374322
   0.15802702  0.90374322  0.90374322
   0.65802702  0.40374322  0.40374322
   0.65802702  0.40374322  0.90374322
   0.65802702  0.90374322  0.40374322
   0.65802702  0.90374322  0.90374322
   0.40117712  0.40153279  0.15781784
   0.40117712  0.40153279  0.65781784
   0.40117712  0.90153279  0.15781784
   0.40117712  0.90153279  0.65781784
   0.90117712  0.40153279  0.15781784
   0.90117712  0.40153279  0.65781784
   0.90117712  0.90153279  0.15781784
   0.90117712  0.90153279  0.65781784
   0.40117712  0.15781784  0.40153279
   0.40117712  0.15781784  0.90153279
   0.40117712  0.65781784  0.40153279
   0.40117712  0.65781784  0.90153279
   0.90117712  0.15781784  0.40153279
   0.90117712  0.15781784  0.90153279
   0.90117712  0.65781784  0.40153279
   0.90117712  0.65781784  0.90153279
   0.34120509  0.09669532  0.09669532
   0.34120509  0.09669532  0.59669532
   0.34120509  0.59669532  0.09669532
   0.34120509  0.59669532  0.59669532
   0.84120509  0.09669532  0.09669532
   0.84120509  0.09669532  0.59669532
   0.84120509  0.59669532  0.09669532
   0.84120509  0.59669532  0.59669532
   0.09921577  0.09758067  0.34332647
   0.09921577  0.09758067  0.84332647
   0.09921577  0.59758067  0.34332647
   0.09921577  0.59758067  0.84332647
   0.59921577  0.09758067  0.34332647
   0.59921577  0.09758067  0.84332647
   0.59921577  0.59758067  0.34332647
   0.59921577  0.59758067  0.84332647
   0.09921577  0.34332647  0.09758067
   0.09921577  0.34332647  0.59758067
   0.09921577  0.84332647  0.09758067
   0.09921577  0.84332647  0.59758067
   0.59921577  0.34332647  0.09758067
   0.59921577  0.34332647  0.59758067
   0.59921577  0.84332647  0.09758067
   0.59921577  0.84332647  0.59758067
   0.49407956  0.49752934  0.33690793
   0.49407956  0.49752934  0.83690793
   0.49407956  0.99752934  0.33690793
   0.49407956  0.99752934  0.83690793
   0.99407956  0.49752934  0.33690793
   0.99407956  0.49752934  0.83690793
   0.99407956  0.99752934  0.33690793
   0.99407956  0.99752934  0.83690793
   0.49407956  0.33690793  0.49752934
   0.49407956  0.33690793  0.99752934
   0.49407956  0.83690793  0.49752934
   0.49407956  0.83690793  0.99752934
   0.99407956  0.33690793  0.49752934
   0.99407956  0.33690793  0.99752934
   0.99407956  0.83690793  0.49752934
   0.99407956  0.83690793  0.99752934
   0.17020887  0.00339513  0.00339513
   0.17020887  0.00339513  0.50339513
   0.17020887  0.50339513  0.00339513
   0.17020887  0.50339513  0.50339513
   0.67020887  0.00339513  0.00339513
   0.67020887  0.00339513  0.50339513
   0.67020887  0.50339513  0.00339513
   0.67020887  0.50339513  0.50339513
   0.00401216  0.00287645  0.16468273
   0.00401216  0.00287645  0.66468273
   0.00401216  0.50287645  0.16468273
   0.00401216  0.50287645  0.66468273
   0.50401216  0.00287645  0.16468273
   0.50401216  0.00287645  0.66468273
   0.50401216  0.50287645  0.16468273
   0.50401216  0.50287645  0.66468273
   0.00401216  0.16468273  0.00287645
   0.00401216  0.16468273  0.50287645
   0.00401216  0.66468273  0.00287645
   0.00401216  0.66468273  0.50287645
   0.50401216  0.16468273  0.00287645
   0.50401216  0.16468273  0.50287645
   0.50401216  0.66468273  0.00287645
   0.50401216  0.66468273  0.50287645
   0.24717846  0.24875462  0.24875462
   0.24717846  0.24875462  0.74875462
   0.24717846  0.74875462  0.24875462
   0.24717846  0.74875462  0.74875462
   0.74717846  0.24875462  0.24875462
   0.74717846  0.24875462  0.74875462
   0.74717846  0.74875462  0.24875462
   0.74717846  0.74875462  0.74875462
   0.33928195  0.49756780  0.49756780
   0.33928195  0.49756780  0.99756780
   0.33928195  0.99756780  0.49756780
   0.33928195  0.99756780  0.99756780
   0.83928195  0.49756780  0.49756780
   0.83928195  0.49756780  0.99756780
   0.83928195  0.99756780  0.49756780
   0.83928195  0.99756780  0.99756780
   0.30609338  0.31006756  0.31006756
   0.30609338  0.31006756  0.81006756
   0.30609338  0.81006756  0.31006756
   0.30609338  0.81006756  0.81006756
   0.80609338  0.31006756  0.31006756
   0.80609338  0.31006756  0.81006756
   0.80609338  0.81006756  0.31006756
   0.80609338  0.81006756  0.81006756
   0.19103598  0.18752313  0.18752313
   0.19103598  0.18752313  0.68752313
   0.19103598  0.68752313  0.18752313
   0.19103598  0.68752313  0.68752313
   0.69103598  0.18752313  0.18752313
   0.69103598  0.18752313  0.68752313
   0.69103598  0.68752313  0.18752313
   0.69103598  0.68752313  0.68752313
unknown system                          
            1
     9.136289    0.049848    4.144831
     2.641277    9.012373    4.251312
    -0.057889    0.080883   10.308393
   B    C 
    96    24
Direct configuration=     5
   0.15803413  0.40370813  0.40370813
   0.15803413  0.40370813  0.90370813
   0.15803413  0.90370813  0.40370813
   0.15803413  0.90370813  0.90370813
   0.65803413  0.40370813  0.40370813
   0.65803413  0.40370813  0.90370813
   0.65803413  0.90370813  0.40370813
   0.65803413  0.90370813  0.90370813
   0.40128037  0.40177149  0.15767084
   0.40128037  0.40177149  0.65767084
   0.40128037  0.90177149  0.15767084
   0.40128037  0.90177149  0.65767084
   0.90128037  0.40177149  0.15767084
   0.90128037  0.40177149  0.65767084
   0.90128037  0.90177149  0.15767084
   0.90128037  0.90177149  0.65767084
   0.40128037  0.15767084  0.40177149
   0.40128037  0.15767084  0.90177149
   0.40128037  0.65767084  0.40177149
   0.40128037  0.65767084  0.90177149
   0.90128037  0.15767084  0.40177149
   0.90128037  0.15767084  0.90177149
   0.90128037  0.65767084  0.40177149
   0.90128037  0.65767084  0.90177149
   0.34119576  0.09673947  0.09673947
   0.34119576  0.09673947  0.59673947
   0.34119576  0.59673947  0.09673947
   0.34119576  0.59673947  0.59673947
   0.84119576  0.09673947  0.09673947
   0.84119576  0.09673947  0.59673947
   0.84119576  0.59673947  0.09673947
   0.84119576  0.59673947  0.59673947
   0.09906661  0.09734525  0.34344507
   0.09906661  0.09734525  0.84344507
   0.09906661  0.59734525  0.34344507
   0.09906661  0.59734525  0.84344507
   0.59906661  0.09734525  0.34344507
   0.59906661  0.09734525  0.84344507
   0.59906661  0.59734525  0.34344507
   0.59906661  0.59734525  0.84344507
   0.09906661  0.34344507  0.09734525
   0.09906661  0.34344507  0.59734525
   0.09906661  0.84344507  0.09734525
   0.09906661  0.84344507  0.59734525
   0.59906661  0.34344507  0.09734525
   0.59906661  0.34344507  0.59734525
   0.59906661  0.84344507  0.09734525
   0.59906661  0.84344507  0.59734525
   0.49420448  0.49746669  0.33685085
   0.49420448  0.49746669  0.83685085
   0.49420448  0.99746669  0.33685085
   0.49420448  0.99746669  0.83685085
   0.99420448  0.49746669  0.33685085
   0.99420448  0.49746669  0.83685085
   0.99420448  0.99746669  0.33685085
   0.99420448  0.99746669  0.83685085
   0.49420448  0.33685085  0.49746669
   0.49420448  0.33685085  0.99746669
   0.49420448  0.83685085  0.49746669
   0.49420448  0.83685085  0.99746669
   0.99420448  0.33685085  0.49746669
   0.99420448  0.33685085  0.99746669
   0.99420448  0.83685085  0.49746669
   0.99420448  0.83685085  0.99746669
   0.17036438  0.00324639  0.00324639
   0.17036438  0.00324639  0.50324639
   0.17036438  0.50324639  0.00324639
   0.17036438  0.50324639  0.50324639
   0.67036438  0.00324639  0.00324639
   0.67036438  0.00324639  0.50324639
   0.67036438  0.50324639  0.00324639
   0.67036438  0.50324639  0.50324639
   0.00383473  0.00285066  0.16457060
   0.00383473  0.00285066  0.66457060
   0.00383473  0.50285066  0.16457060
   0.00383473  0.50285066  0.66457060
   0.50383473  0.00285066  0.16457060
   0.50383473  0.00285066  0.66457060
   0.50383473  0.50285066  0.16457060
   0.50383473  0.50285066  0.66457060
   0.00383473  0.16457060  0.00285066
   0.00383473  0.16457060  0.50285066
   0.00383473  0.66457060  0.00285066
   0.00383473  0.66457060  0.50285066
   0.50383473  0.16457060  0.00285066
   0.50383473  0.16457060  0.50285066
   0.50383473  0.66457060  0.00285066
   0.50383473  0.66457060  0.50285066
   0.24761861  0.24900500  0.24900500
   0.24761861  0.24900500  0.74900500
   0.24761861  0.74900500  0.24900500
   0.24761861  0.74900500  0.74900500
   0.74761861  0.24900500  0.24900500
   0.74761861  0.24900500  0.74900500
   0.74761861  0.74900500  0.24900500
   0.74761861  0.74900500  0.74900500
   0.33899280  0.49769150  0.49769150
   0.33899280  0.49769150  0.99769150
   0.33899280  0.99769150  0.49769150
   0.33899280  0.99769150  0.99769150
   0.83899280  0.49769150  0.49769150
   0.83899280  0.49769150  0.99769150
   0.83899280  0.99769150  0.49769150
   0.83899280  0.99769150  0.99769150
   0.30612482  0.30981757  0.30981757
   0.30612482  0.30981757  0.80981757
   0.30612482  0.80981757  0.30981757
   0.30612482  0.80981757  0.80981757
   0.80612482  0.30981757  0.30981757
   0.80612482  0.30981757  0.80981757
   0.80612482  0.80981757  0.30981757
   0.80612482  0.80981757  0.80981757
   0.19089710  0.18782149  0.18782149
   0.19089710  0.18782149  0.68782149
   0.19089710  0.68782149  0.18782149
   0.19089710  0.68782149  0.68782149
   0.69089710  0.18782149  0.18782149
   0.69089710  0.18782149  0.68782149
   0.69089710  0.68782149  0.18782149
   0.69089710  0.68782149  0.68782149
unknown system                          
            1
     9.123529    0.040414    4.125234
     2.620795    9.017291    4.247658
    -0.078841    0.084245   10.305793
   B    C 
    96    24
Direct configuration=     6
   0.15787472  0.40400605  0.40400605
   0.15787472  0.40400605  0.90400605
   0.15787472  0.90400605  0.40400605
   0.15787472  0.90400605  0.90400605
   0.65787472  0.40400605  0.40400605
   0.65787472  0.40400605  0.90400605
   0.65787472  0.90400605  0.40400605
   0.65787472  0.90400605  0.90400605
   0.40134817  0.40150755  0.15776002
   0.40134817  0.40150755  0.65776002
   0.40134817  0.90150755  0.15776002
   0.40134817  0.90150755  0.65776002
   0.90134817  0.40150755  0.15776002
   0.90134817  0.40150755  0.65776002
   0.90134817  0.90150755  0.15776002
   0.90134817  0.90150755  0.65776002
   0.40134817  0.15776002  0.40150755
   0.40134817  0.15776002  0.90150755
   0.40134817  0.65776002  0.40150755
   0.40134817  0.65776002  0.90150755
   0.90134817  0.15776002  0.40150755
   0.90134817  0.15776002  0.90150755
   0.90134817  0.65776002  0.40150755
   0.90134817  0.65776002  0.90150755
   0.34167533  0.09632203  0.09632203
   0.34167533  0.09632203  0.59632203
   0.34167533  0.59632203  0.09632203
   0.34167533  0.59632203  0.59632203
   0.84167533  0.09632203  0.09632203
   0.84167533  0.09632203  0.59632203
   0.84167533  0.59632203  0.09632203
   0.84167533  0.59632203  0.59632203
   0.09914160  0.09763669  0.34349252
   0.09914160  0.09763669  0.84349252
   0.09914160  0.59763669  0.34349252
   0.09914160  0.59763669  0.84349252
   0.59914160  0.09763669  0.34349252
   0.59914160  0.09763669  0.84349252
   0.59914160  0.59763669  0.34349252
   0.59914160  0.59763669  0.84349252
   0.09914160  0.34349252  0.09763669
   0.09914160  0.34349252  0.59763669
   0.09914160  0.84349252  0.09763669
   0.09914160  0.84349252  0.59763669
   0.59914160  0.34349252  0.09763669
   0.59914160  0.34349252  0.59763669
   0.59914160  0.84349252  0.09763669
   0.59914160  0.84349252  0.59763669
   0.49398190  0.49770460  0.33704482
   0.49398190  0.49770460  0.83704482
   0.49398190  0.99770460  0.33704482
   0.49398190  0.99770460  0.83704482
   0.99398190  0.49770460  0.33704482
   0.99398190  0.49770460  0.83704482
   0.99398190  0.99770460  0.33704482
   0.99398190  0.99770460  0.83704482
   0.49398190  0.33704482  0.49770460
   0.49398190  0.33704482  0.99770460
   0.49398190  0.83704482  0.49770460
   0.49398190  0.83704482  0.99770460
   0.99398190  0.33704482  0.49770460
   0.99398190  0.33704482  0.99770460
   0.99398190  0.83704482  0.49770460
   0.99398190  0.83704482  0.99770460
   0.17035695  0.00351552  0.00351552
   0.17035695  0.00351552  0.50351552
   0.17035695  0.50351552  0.00351552
   0.17035695  0.50351552  0.50351552
   0.67035695  0.00351552  0.00351552
   0.67035695  0.00351552  0.50351552
   0.67035695  0.50351552  0.00351552
   0.67035695  0.50351552  0.50351552
   0.00417022  0.00281487  0.16474678
   0.00417022  0.00281487  0.66474678
   0.00417022  0.50281487  0.16474678
   0.00417022  0.50281487  0.66474678
   0.50417022  0.00281487  0.16474678
   0.50417022  0.00281487  0.66474678
   0.50417022  0.50281487  0.16474678
   0.50417022  0.50281487  0.66474678
   0.00417022  0.16474678  0.00281487
   0.00417022  0.16474678  0.50281487
   0.00417022  0.66474678  0.00281487
   0.00417022  0.66474678  0.50281487
   0.50417022  0.16474678  0.00281487
   0.50417022  0.16474678  0.50281487
   0.50417022  0.66474678  0.00281487
   0.50417022  0.66474678  0.50281487
   0.24700169  0.24892746  0.24892746
   0.24700169  0.24892746  0.74892746
   0.24700169  0.74892746  0.24892746
   0.24700169  0.74892746  0.74892746
   0.74700169  0.24892746  0.24892746
   0.74700169  0.24892746  0.74892746
   0.74700169  0.74892746  0.24892746
   0.74700169  0.74892746  0.74892746
   0.33925731  0.49748436  0.49748436
   0.33925731  0.49748436  0.99748436
   0.33925731  0.99748436  0.49748436
   0.33925731  0.99748436  0.99748436
   0.83925731  0.49748436  0.49748436
   0.83925731  0.49748436  0.99748436
   0.83925731  0.99748436  0.49748436
   0.83925731  0.99748436  0.99748436
   0.30523150  0.30983658  0.30983658
   0.30523150  0.30983658  0.80983658
   0.30523150  0.80983658  0.30983658
   0.30523150  0.80983658  0.80983658
   0.80523150  0.30983658  0.30983658
   0.80523150  0.30983658  0.80983658
   0.80523150  0.80983658  0.30983658
   0.80523150  0.80983658  0.80983658
   0.19131872  0.18720115  0.18720115
   0.19131872  0.18720115  0.68720115
   0.19131872  0.68720115  0.18720115
   0.19131872  0.68720115  0.68720115
   0.69131872  0.18720115  0.18720115
   0.69131872  0.18720115  0.68720115
   0.69131872  0.68720115  0.18720115
   0.69131872  0.68720115  0.68720115
unknown system                          
            1
     9.118142    0.036423    4.116948
     2.612132    9.019383    4.246117
    -0.087705    0.085668   10.304705
   B    C 
    96    24
Direct configuration=     7
   0.15780781  0.40413191  0.40413191
   0.15780781  0.40413191  0.90413191
   0.15780781  0.90413191  0.40413191
   0.15780781  0.90413191  0.90413191
   0.65780781  0.40413191  0.40413191
   0.65780781  0.40413191  0.90413191
   0.65780781  0.90413191  0.40413191
   0.65780781  0.90413191  0.90413191
   0.40137670  0.40139596  0.15779780
   0.40137670  0.40139596  0.65779780
   0.40137670  0.90139596  0.15779780
   0.40137670  0.90139596  0.65779780
   0.90137670  0.40139596  0.15779780
   0.90137670  0.40139596  0.65779780
   0.90137670  0.90139596  0.15779780
   0.90137670  0.90139596  0.65779780
   0.40137670  0.15779780  0.40139596
   0.40137670  0.15779780  0.90139596
   0.40137670  0.65779780  0.40139596
   0.40137670  0.65779780  0.90139596
   0.90137670  0.15779780  0.40139596
   0.90137670  0.15779780  0.90139596
   0.90137670  0.65779780  0.40139596