 112 112   0   0
  0.7777803E+01  0.1036269E-08  0.1036269E-08  0.1036269E-08  0.5000000E-15
    5.000000000000000     
  CAR 
 unknown system                          
     13.45159347    -11.90736422  301      4.08546365      1.00000000
    -11.907  0.0000E+00  0.0000E+00
    -11.823  0.0000E+00  0.0000E+00
    -11.738  0.0000E+00  0.0000E+00
    -11.654  0.0000E+00  0.0000E+00
    -11.569  0.0000E+00  0.0000E+00
    -11.485  0.0000E+00  0.0000E+00
    -11.400  0.0000E+00  0.0000E+00
    -11.316  0.0000E+00  0.0000E+00
    -11.231  0.0000E+00  0.0000E+00
    -11.147  0.0000E+00  0.0000E+00
    -11.062  0.0000E+00  0.0000E+00
    -10.978  0.0000E+00  0.0000E+00
    -10.893  0.0000E+00  0.0000E+00
    -10.808  0.0000E+00  0.0000E+00
    -10.724  0.1109E+00  0.1135E-02
    -10.639  0.1560E+01  0.5988E-01
    -10.555  0.4687E+01  0.3118E+00
    -10.470  0.1883E+02  0.1021E+01
    -10.386  0.1009E+02  0.3571E+01
    -10.301  0.1992E+01  0.3938E+01
    -10.217  0.1735E-01  0.4000E+01
    -10.132  0.1007E+02  0.4087E+01
    -10.048  0.3266E+02  0.6217E+01
     -9.963  0.4017E+02  0.9438E+01
     -9.879  0.1497E+02  0.1172E+02
     -9.794  0.3906E+02  0.1463E+02
     -9.710  0.0000E+00  0.1600E+02
     -9.625  0.0000E+00  0.1600E+02
     -9.541  0.0000E+00  0.1600E+02
     -9.456  0.0000E+00  0.1600E+02
     -9.371  0.0000E+00  0.1600E+02
     -9.287  0.0000E+00  0.1600E+02
     -9.202  0.0000E+00  0.1600E+02
     -9.118  0.0000E+00  0.1600E+02
     -9.033  0.0000E+00  0.1600E+02
     -8.949  0.0000E+00  0.1600E+02
     -8.864  0.2188E+00  0.1600E+02
     -8.780  0.2545E+01  0.1610E+02
     -8.695  0.7446E+01  0.1651E+02
     -8.611  0.1706E+02  0.1749E+02
     -8.526  0.3246E+02  0.1955E+02
     -8.442  0.4415E+02  0.2353E+02
     -8.357  0.4561E+01  0.2465E+02
     -8.273  0.5907E+01  0.2510E+02
     -8.188  0.7246E+01  0.2565E+02
     -8.104  0.9259E+01  0.2632E+02
     -8.019  0.2602E+02  0.2793E+02
     -7.934  0.1127E+02  0.2966E+02
     -7.850  0.5381E+02  0.3173E+02
     -7.765  0.2577E+02  0.3479E+02
     -7.681  0.1979E+02  0.3671E+02
     -7.596  0.1408E+02  0.3814E+02
     -7.512  0.8698E+01  0.3910E+02
     -7.427  0.4507E+01  0.3964E+02
     -7.343  0.1859E+01  0.3990E+02
     -7.258  0.1887E+02  0.4048E+02
     -7.174  0.3125E+02  0.4278E+02
     -7.089  0.1005E+02  0.4410E+02
     -7.005  0.2412E+02  0.4628E+02
     -6.920  0.8466E+01  0.4738E+02
     -6.836  0.3173E+01  0.4785E+02
     -6.751  0.5277E+00  0.4799E+02
     -6.667  0.0000E+00  0.4800E+02
     -6.582  0.2444E+01  0.4803E+02
     -6.497  0.1763E+02  0.4901E+02
     -6.413  0.1908E+02  0.5057E+02
     -6.328  0.1968E+02  0.5225E+02
     -6.244  0.7661E+02  0.5496E+02
     -6.159  0.1532E+02  0.5631E+02
     -6.075  0.2012E+02  0.5783E+02
     -5.990  0.2382E+02  0.5962E+02
     -5.906  0.5345E+02  0.6316E+02
     -5.821  0.2077E+02  0.6538E+02
     -5.737  0.2767E+02  0.6755E+02
     -5.652  0.2036E+02  0.6966E+02
     -5.568  0.2457E+02  0.7136E+02
     -5.483  0.3273E+02  0.7390E+02
     -5.399  0.3331E+02  0.7716E+02
     -5.314  0.1533E+02  0.7824E+02
     -5.230  0.3831E+02  0.8005E+02
     -5.145  0.1157E+02  0.8150E+02
     -5.060  0.1438E+02  0.8228E+02
     -4.976  0.1177E+02  0.8357E+02
     -4.891  0.1128E+02  0.8419E+02
     -4.807  0.1051E+02  0.8543E+02
     -4.722  0.3505E+02  0.8665E+02
     -4.638  0.2485E+02  0.8984E+02
     -4.553  0.1973E+02  0.9168E+02
     -4.469  0.1576E+02  0.9317E+02
     -4.384  0.1182E+02  0.9434E+02
     -4.300  0.7923E+01  0.9517E+02
     -4.215  0.4067E+01  0.9568E+02
     -4.131  0.1632E+01  0.9590E+02
     -4.046  0.4887E+00  0.9598E+02
     -3.962  0.2033E-01  0.9600E+02
     -3.877  0.6273E-02  0.9600E+02
     -3.792  0.4101E+00  0.9601E+02
     -3.708  0.1663E+01  0.9609E+02
     -3.623  0.5359E+01  0.9636E+02
     -3.539  0.1035E+02  0.9703E+02
     -3.454  0.1567E+02  0.9812E+02
     -3.370  0.2155E+02  0.9969E+02
     -3.285  0.3294E+02  0.1020E+03
     -3.201  0.1522E+02  0.1042E+03
     -3.116  0.7570E+01  0.1052E+03
     -3.032  0.1316E+02  0.1059E+03
     -2.947  0.2824E+02  0.1079E+03
     -2.863  0.2412E+02  0.1098E+03
     -2.778  0.2438E+02  0.1118E+03
     -2.694  0.2663E+02  0.1140E+03
     -2.609  0.2581E+02  0.1162E+03
     -2.525  0.2119E+02  0.1183E+03
     -2.440  0.1474E+02  0.1195E+03
     -2.355  0.4727E+02  0.1222E+03
     -2.271  0.2210E+02  0.1248E+03
     -2.186  0.1629E+02  0.1263E+03
     -2.102  0.3521E+02  0.1285E+03
     -2.017  0.4288E+02  0.1321E+03
     -1.933  0.5493E+02  0.1355E+03
     -1.848  0.4421E+02  0.1402E+03
     -1.764  0.4142E+02  0.1437E+03
     -1.679  0.2855E+02  0.1469E+03
     -1.595  0.5639E+01  0.1479E+03
     -1.510  0.2207E+02  0.1489E+03
     -1.426  0.4032E+02  0.1517E+03
     -1.341  0.3360E+02  0.1550E+03
     -1.257  0.4502E+02  0.1576E+03
     -1.172  0.2400E+02  0.1599E+03
     -1.088  0.1768E+02  0.1615E+03
     -1.003  0.4602E+02  0.1636E+03
     -0.918  0.4909E+02  0.1678E+03
     -0.834  0.4119E+02  0.1717E+03
     -0.749  0.3414E+02  0.1747E+03
     -0.665  0.4099E+02  0.1787E+03
     -0.580  0.7580E+01  0.1799E+03
     -0.496  0.7293E+01  0.1804E+03
     -0.411  0.1289E+02  0.1813E+03
     -0.327  0.1579E+02  0.1825E+03
     -0.242  0.1777E+02  0.1839E+03
     -0.158  0.1923E+02  0.1855E+03
     -0.073  0.2510E+02  0.1873E+03
      0.011  0.1757E+02  0.1891E+03
      0.096  0.1296E+02  0.1900E+03
      0.180  0.2114E+02  0.1913E+03
      0.265  0.3142E+02  0.1938E+03
      0.349  0.4806E+02  0.1969E+03
      0.434  0.7853E+02  0.2027E+03
      0.519  0.6830E+02  0.2092E+03
      0.603  0.4855E+02  0.2132E+03
      0.688  0.2683E+02  0.2152E+03
      0.772  0.2909E+02  0.2176E+03
      0.857  0.2723E+02  0.2200E+03
      0.941  0.3057E+02  0.2223E+03
      1.026  0.4330E+02  0.2255E+03
      1.110  0.5411E+02  0.2296E+03
      1.195  0.5640E+02  0.2347E+03
      1.279  0.6878E+02  0.2375E+03
      1.364  0.1049E+03  0.2450E+03
      1.448  0.3748E+02  0.2508E+03
      1.533  0.2381E+02  0.2531E+03
      1.617  0.2030E+02  0.2549E+03
      1.702  0.1808E+02  0.2566E+03
      1.786  0.1534E+02  0.2580E+03
      1.871  0.1164E+02  0.2591E+03
      1.956  0.8841E+01  0.2599E+03
      2.040  0.6131E+02  0.2622E+03
      2.125  0.1236E+03  0.2701E+03
      2.209  0.1047E+03  0.2787E+03
      2.294  0.7820E+02  0.2852E+03
      2.378  0.5810E+02  0.2896E+03
      2.463  0.3736E+02  0.2939E+03
      2.547  0.3638E+02  0.2966E+03
      2.632  0.3001E+02  0.2993E+03
      2.716  0.6114E+02  0.3030E+03
      2.801  0.8216E+02  0.3094E+03
      2.885  0.6547E+02  0.3164E+03
      2.970  0.4977E+02  0.3203E+03
      3.054  0.4008E+02  0.3242E+03
      3.139  0.3363E+02  0.3271E+03
      3.223  0.3582E+02  0.3308E+03
      3.308  0.4454E+01  0.3319E+03
      3.393  0.9746E+01  0.3323E+03
      3.477  0.3384E+02  0.3341E+03
      3.562  0.6605E+02  0.3383E+03
      3.646  0.2334E+02  0.3418E+03
      3.731  0.3011E+02  0.3440E+03
      3.815  0.2655E+02  0.3464E+03
      3.900  0.1697E+02  0.3482E+03
      3.984  0.1676E+02  0.3496E+03
      4.069  0.2435E+02  0.3515E+03
      4.153  0.2340E+01  0.3523E+03
      4.238  0.3237E+01  0.3526E+03
      4.322  0.4487E+01  0.3529E+03
      4.407  0.6137E+01  0.3533E+03
      4.491  0.1011E+02  0.3540E+03
      4.576  0.1345E+02  0.3551E+03
      4.660  0.4833E+01  0.3559E+03
      4.745  0.0000E+00  0.3560E+03
      4.830  0.1030E+00  0.3560E+03
      4.914  0.1641E+01  0.3561E+03
      4.999  0.2216E+02  0.3568E+03
      5.083  0.5097E+02  0.3603E+03
      5.168  0.3337E+02  0.3632E+03
      5.252  0.3236E+02  0.3661E+03
      5.337  0.9056E+01  0.3680E+03
      5.421  0.1299E+00  0.3680E+03
      5.506  0.1449E+01  0.3681E+03
      5.590  0.6060E+01  0.3683E+03
      5.675  0.1188E+02  0.3691E+03
      5.759  0.1454E+02  0.3702E+03
      5.844  0.1441E+02  0.3714E+03
      5.928  0.1932E+02  0.3727E+03
      6.013  0.2456E+02  0.3746E+03
      6.097  0.2118E+02  0.3762E+03
      6.182  0.2244E+02  0.3780E+03
      6.267  0.2920E+02  0.3801E+03
      6.351  0.1526E+02  0.3823E+03
      6.436  0.6778E+01  0.3831E+03
      6.520  0.4139E+01  0.3836E+03
      6.605  0.2191E+01  0.3838E+03
      6.689  0.8730E+00  0.3840E+03
      6.774  0.1752E+00  0.3840E+03
      6.858  0.1181E-02  0.3840E+03
      6.943  0.0000E+00  0.3840E+03
      7.027  0.0000E+00  0.3840E+03
      7.112  0.0000E+00  0.3840E+03
      7.196  0.0000E+00  0.3840E+03
      7.281  0.0000E+00  0.3840E+03
      7.365  0.0000E+00  0.3840E+03
      7.450  0.0000E+00  0.3840E+03
      7.535  0.0000E+00  0.3840E+03
      7.619  0.0000E+00  0.3840E+03
      7.704  0.0000E+00  0.3840E+03
      7.788  0.1013E-02  0.3840E+03
      7.873  0.1066E-01  0.3840E+03
      7.957  0.1153E+00  0.3840E+03
      8.042  0.6511E+00  0.3840E+03
      8.126  0.1727E+01  0.3841E+03
      8.211  0.3364E+01  0.3843E+03
      8.295  0.5583E+01  0.3847E+03
      8.380  0.9400E+01  0.3853E+03
      8.464  0.1303E+02  0.3863E+03
      8.549  0.8687E+01  0.3873E+03
      8.633  0.1014E+02  0.3880E+03
      8.718  0.2297E+02  0.3894E+03
      8.802  0.2647E+02  0.3916E+03
      8.887  0.2204E+02  0.3936E+03
      8.972  0.1940E+02  0.3953E+03
      9.056  0.2002E+02  0.3970E+03
      9.141  0.1644E+02  0.3986E+03
      9.225  0.1204E+02  0.3998E+03
      9.310  0.1417E+02  0.4008E+03
      9.394  0.2730E+02  0.4024E+03
      9.479  0.7359E+02  0.4059E+03
      9.563  0.2768E+02  0.4091E+03
      9.648  0.1425E+02  0.4102E+03
      9.732  0.1653E+02  0.4116E+03
      9.817  0.1707E+02  0.4130E+03
      9.901  0.1880E+02  0.4144E+03
      9.986  0.2491E+02  0.4163E+03
     10.070  0.4644E+02  0.4189E+03
     10.155  0.5626E+02  0.4236E+03
     10.239  0.3294E+02  0.4265E+03
     10.324  0.2462E+02  0.4291E+03
     10.409  0.3176E+02  0.4311E+03
     10.493  0.8906E+01  0.4329E+03
     10.578  0.1033E+02  0.4336E+03
     10.662  0.1295E+02  0.4346E+03
     10.747  0.1459E+02  0.4358E+03
     10.831  0.1584E+02  0.4371E+03
     10.916  0.1674E+02  0.4385E+03
     11.000  0.1729E+02  0.4399E+03
     11.085  0.1743E+02  0.4414E+03
     11.169  0.1725E+02  0.4429E+03
     11.254  0.1932E+02  0.4443E+03
     11.338  0.2792E+02  0.4459E+03
     11.423  0.3595E+02  0.4482E+03
     11.507  0.3694E+02  0.4512E+03
     11.592  0.2189E+02  0.4532E+03
     11.676  0.2159E+02  0.4550E+03
     11.761  0.2098E+02  0.4568E+03
     11.846  0.1345E+02  0.4584E+03
     11.930  0.1233E+02  0.4594E+03
     12.015  0.1910E+02  0.4607E+03
     12.099  0.3226E+02  0.4631E+03
     12.184  0.1364E+02  0.4647E+03
     12.268  0.8629E+01  0.4659E+03
     12.353  0.0000E+00  0.4660E+03
     12.437  0.0000E+00  0.4660E+03
     12.522  0.0000E+00  0.4660E+03
     12.606  0.0000E+00  0.4660E+03
     12.691  0.0000E+00  0.4660E+03
     12.775  0.0000E+00  0.4660E+03
     12.860  0.0000E+00  0.4660E+03
     12.944  0.0000E+00  0.4660E+03
     13.029  0.0000E+00  0.4660E+03
     13.113  0.0000E+00  0.4660E+03
     13.198  0.0000E+00  0.4660E+03
     13.283  0.0000E+00  0.4660E+03
     13.367  0.0000E+00  0.4660E+03
     13.452  0.0000E+00  0.4660E+03
     13.45289190    -11.90733453  301      4.08600920      1.00000000
    -11.907  0.0000E+00  0.0000E+00
    -11.823  0.0000E+00  0.0000E+00
    -11.738  0.0000E+00  0.0000E+00
    -11.654  0.0000E+00  0.0000E+00
    -11.569  0.0000E+00  0.0000E+00
    -11.485  0.0000E+00  0.0000E+00
    -11.400  0.0000E+00  0.0000E+00
    -11.316  0.0000E+00  0.0000E+00
    -11.231  0.0000E+00  0.0000E+00
    -11.147  0.0000E+00  0.0000E+00
    -11.062  0.0000E+00  0.0000E+00
    -10.977  0.0000E+00  0.0000E+00
    -10.893  0.0000E+00  0.0000E+00
    -10.808  0.0000E+00  0.0000E+00
    -10.724  0.1102E-02  0.1129E-04
    -10.639  0.1550E-01  0.5955E-03
    -10.555  0.4656E-01  0.3101E-02
    -10.470  0.1892E+00  0.1019E-01
    -10.386  0.9110E-01  0.3577E-01
    -10.301  0.1966E-01  0.3939E-01
    -10.217  0.1762E-03  0.4000E-01
    -10.132  0.1031E+00  0.4088E-01
    -10.048  0.3330E+00  0.6229E-01
     -9.963  0.3995E+00  0.9475E-01
     -9.879  0.1736E+00  0.1174E+00
     -9.794  0.3787E+00  0.1474E+00
     -9.709  0.0000E+00  0.1600E+00
     -9.625  0.0000E+00  0.1600E+00
     -9.540  0.0000E+00  0.1600E+00
     -9.456  0.0000E+00  0.1600E+00
     -9.371  0.0000E+00  0.1600E+00
     -9.287  0.0000E+00  0.1600E+00
     -9.202  0.0000E+00  0.1600E+00
     -9.118  0.0000E+00  0.1600E+00
     -9.033  0.0000E+00  0.1600E+00
     -8.949  0.0000E+00  0.1600E+00
     -8.864  0.1992E-02  0.1600E+00
     -8.780  0.2509E-01  0.1610E+00
     -8.695  0.7412E-01  0.1650E+00
     -8.611  0.1723E+00  0.1748E+00
     -8.526  0.3293E+00  0.1958E+00
     -8.441  0.4423E+00  0.2362E+00
     -8.357  0.4559E-01  0.2466E+00
     -8.272  0.5889E-01  0.2510E+00
     -8.188  0.7212E-01  0.2566E+00
     -8.103  0.8899E-01  0.2632E+00
     -8.019  0.2676E+00  0.2799E+00
     -7.934  0.1038E+00  0.2972E+00
     -7.850  0.5204E+00  0.3194E+00
     -7.765  0.2550E+00  0.3489E+00
     -7.681  0.1953E+00  0.3679E+00
     -7.596  0.1383E+00  0.3820E+00
     -7.512  0.8463E-01  0.3914E+00
     -7.427  0.4332E-01  0.3967E+00
     -7.342  0.1744E-01  0.3991E+00
     -7.258  0.2013E+00  0.4049E+00
     -7.173  0.3296E+00  0.4294E+00
     -7.089  0.1252E+00  0.4412E+00
     -7.004  0.1760E+00  0.4642E+00
     -6.920  0.8036E-01  0.4742E+00
     -6.835  0.2927E-01  0.4787E+00
     -6.751  0.4191E-02  0.4799E+00
     -6.666  0.0000E+00  0.4800E+00
     -6.582  0.7447E-01  0.4808E+00
     -6.497  0.1771E+00  0.4928E+00
     -6.413  0.1789E+00  0.5079E+00
     -6.328  0.1775E+00  0.5233E+00
     -6.244  0.5187E+00  0.5561E+00
     -6.159  0.1319E+00  0.5634E+00
     -6.074  0.2199E+00  0.5799E+00
     -5.990  0.2604E+00  0.5992E+00
     -5.905  0.6369E+00  0.6385E+00
     -5.821  0.2165E+00  0.6551E+00
     -5.736  0.2974E+00  0.6784E+00
     -5.652  0.1543E+00  0.6988E+00
     -5.567  0.2545E+00  0.7154E+00
     -5.483  0.3116E+00  0.7401E+00
     -5.398  0.2457E+00  0.7727E+00
     -5.314  0.1657E+00  0.7842E+00
     -5.229  0.6788E+00  0.8078E+00
     -5.145  0.6903E-01  0.8154E+00
     -5.060  0.1483E+00  0.8232E+00
     -4.976  0.1228E+00  0.8365E+00
     -4.891  0.1188E+00  0.8421E+00
     -4.806  0.9356E-01  0.8546E+00
     -4.722  0.3766E+00  0.8668E+00
     -4.637  0.2374E+00  0.8988E+00
     -4.553  0.1958E+00  0.9171E+00
     -4.468  0.1564E+00  0.9319E+00
     -4.384  0.1174E+00  0.9435E+00
     -4.299  0.7875E-01  0.9518E+00
     -4.215  0.4041E-01  0.9568E+00
     -4.130  0.1609E-01  0.9590E+00
     -4.046  0.4692E-02  0.9598E+00
     -3.961  0.1129E-03  0.9600E+00
     -3.877  0.3911E-06  0.9600E+00
     -3.792  0.4234E-02  0.9601E+00
     -3.708  0.1686E-01  0.9610E+00
     -3.623  0.5587E-01  0.9638E+00
     -3.538  0.1062E+00  0.9706E+00
     -3.454  0.1598E+00  0.9818E+00
     -3.369  0.2164E+00  0.9977E+00
     -3.285  0.3317E+00  0.1022E+01
     -3.200  0.1481E+00  0.1042E+01
     -3.116  0.6686E-01  0.1052E+01
     -3.031  0.8687E-01  0.1058E+01
     -2.947  0.3044E+00  0.1080E+01
     -2.862  0.2425E+00  0.1099E+01
     -2.778  0.2440E+00  0.1119E+01
     -2.693  0.2743E+00  0.1141E+01
     -2.609  0.2627E+00  0.1164E+01
     -2.524  0.2145E+00  0.1185E+01
     -2.440  0.1074E+00  0.1196E+01
     -2.355  0.5291E+00  0.1224E+01
     -2.270  0.2146E+00  0.1249E+01
     -2.186  0.1447E+00  0.1264E+01
     -2.101  0.2947E+00  0.1288E+01
     -2.017  0.4372E+00  0.1324E+01
     -1.932  0.6253E+00  0.1363E+01
     -1.848  0.4066E+00  0.1408E+01
     -1.763  0.4076E+00  0.1443E+01
     -1.679  0.1656E+00  0.1473E+01
     -1.594  0.4669E-01  0.1480E+01
     -1.510  0.2477E+00  0.1490E+01
     -1.425  0.4122E+00  0.1520E+01
     -1.341  0.3319E+00  0.1553E+01
     -1.256  0.3336E+00  0.1585E+01
     -1.172  0.1907E+00  0.1601E+01
     -1.087  0.1735E+00  0.1617E+01
     -1.002  0.4839E+00  0.1641E+01
     -0.918  0.4682E+00  0.1683E+01
     -0.833  0.3999E+00  0.1719E+01
     -0.749  0.2568E+00  0.1749E+01
     -0.664  0.4517E+00  0.1789E+01
     -0.580  0.7181E-01  0.1799E+01
     -0.495  0.8026E-01  0.1805E+01
     -0.411  0.1343E+00  0.1814E+01
     -0.326  0.1612E+00  0.1827E+01
     -0.242  0.1821E+00  0.1841E+01
     -0.157  0.1964E+00  0.1857E+01
     -0.073  0.5692E+00  0.1875E+01
      0.012  0.1104E+00  0.1892E+01
      0.097  0.1334E+00  0.1901E+01
      0.181  0.2764E+00  0.1916E+01
      0.266  0.2854E+00  0.1941E+01
      0.350  0.5080E+00  0.1971E+01
      0.435  0.8707E+00  0.2032E+01
      0.519  0.6439E+00  0.2098E+01
      0.604  0.2990E+00  0.2136E+01
      0.688  0.2813E+00  0.2156E+01
      0.773  0.2999E+00  0.2181E+01
      0.857  0.2555E+00  0.2205E+01
      0.942  0.3930E+00  0.2228E+01
      1.026  0.3596E+00  0.2258E+01
      1.111  0.4745E+00  0.2298E+01
      1.195  0.4585E+00  0.2355E+01
      1.280  0.9444E+00  0.2376E+01
      1.365  0.1275E+01  0.2456E+01
      1.449  0.3026E+00  0.2512E+01
      1.534  0.2243E+00  0.2534E+01
      1.618  0.1935E+00  0.2551E+01
      1.703  0.1753E+00  0.2567E+01
      1.787  0.1516E+00  0.2580E+01
      1.872  0.1161E+00  0.2592E+01
      1.956  0.6876E-01  0.2599E+01
      2.041  0.6652E+00  0.2622E+01
      2.125  0.1744E+01  0.2719E+01
      2.210  0.8660E+00  0.2793E+01
      2.294  0.6164E+00  0.2861E+01
      2.379  0.6687E+00  0.2907E+01
      2.463  0.2666E+00  0.2947E+01
      2.548  0.3302E+00  0.2975E+01
      2.633  0.4268E+00  0.2999E+01
      2.717  0.6479E+00  0.3046E+01
      2.802  0.9825E+00  0.3102E+01
      2.886  0.5543E+00  0.3168E+01
      2.971  0.5220E+00  0.3208E+01
      3.055  0.3730E+00  0.3246E+01
      3.140  0.2743E+00  0.3270E+01
      3.224  0.2903E+00  0.3311E+01
      3.309  0.2346E-01  0.3320E+01
      3.393  0.1009E+00  0.3323E+01
      3.478  0.3517E+00  0.3341E+01
      3.562  0.7172E+00  0.3390E+01
      3.647  0.2083E+00  0.3419E+01
      3.731  0.3092E+00  0.3442E+01
      3.816  0.2564E+00  0.3467E+01
      3.901  0.1556E+00  0.3483E+01
      3.985  0.1665E+00  0.3496E+01
      4.070  0.2779E+00  0.3516E+01
      4.154  0.2443E-01  0.3524E+01
      4.239  0.3521E-01  0.3526E+01
      4.323  0.4946E-01  0.3530E+01
      4.408  0.6719E-01  0.3535E+01
      4.492  0.1563E+00  0.3543E+01
      4.577  0.1064E+00  0.3555E+01
      4.661  0.3326E-02  0.3560E+01
      4.746  0.0000E+00  0.3560E+01
      4.830  0.0000E+00  0.3560E+01
      4.915  0.6142E-03  0.3560E+01
      4.999  0.3057E+00  0.3569E+01
      5.084  0.3748E+00  0.3611E+01
      5.169  0.3546E+00  0.3636E+01
      5.253  0.2984E+00  0.3665E+01
      5.338  0.7886E-01  0.3680E+01
      5.422  0.0000E+00  0.3680E+01
      5.507  0.1559E-01  0.3680E+01
      5.591  0.8804E-01  0.3685E+01
      5.676  0.1333E+00  0.3694E+01
      5.760  0.1421E+00  0.3706E+01
      5.845  0.1143E+00  0.3717E+01
      5.929  0.4409E+00  0.3735E+01
      6.014  0.1953E+00  0.3750E+01
      6.098  0.2132E+00  0.3768E+01
      6.183  0.1804E+00  0.3785E+01
      6.267  0.4605E+00  0.3814E+01
      6.352  0.9033E-01  0.3827E+01
      6.437  0.5680E-01  0.3833E+01
      6.521  0.3340E-01  0.3837E+01
      6.606  0.1618E-01  0.3839E+01
      6.690  0.5137E-02  0.3840E+01
      6.775  0.2654E-03  0.3840E+01
      6.859  0.0000E+00  0.3840E+01
      6.944  0.0000E+00  0.3840E+01
      7.028  0.0000E+00  0.3840E+01
      7.113  0.0000E+00  0.3840E+01
      7.197  0.0000E+00  0.3840E+01
      7.282  0.0000E+00  0.3840E+01
      7.366  0.0000E+00  0.3840E+01
      7.451  0.0000E+00  0.3840E+01
      7.536  0.0000E+00  0.3840E+01
      7.620  0.0000E+00  0.3840E+01
      7.705  0.0000E+00  0.3840E+01
      7.789  0.0000E+00  0.3840E+01
      7.874  0.0000E+00  0.3840E+01
      7.958  0.7255E-03  0.3840E+01
      8.043  0.5965E-02  0.3840E+01
      8.127  0.1635E-01  0.3841E+01
      8.212  0.3189E-01  0.3843E+01
      8.296  0.5257E-01  0.3847E+01
      8.381  0.9277E-01  0.3852E+01
      8.465  0.1314E+00  0.3862E+01
      8.550  0.8308E-01  0.3872E+01
      8.634  0.7628E-01  0.3878E+01
      8.719  0.2538E+00  0.3893E+01
      8.804  0.2695E+00  0.3916E+01
      8.888  0.2093E+00  0.3936E+01
      8.973  0.2335E+00  0.3954E+01
      9.057  0.2349E+00  0.3975E+01
      9.142  0.1384E+00  0.3991E+01
      9.226  0.9195E-01  0.4000E+01
      9.311  0.1278E+00  0.4009E+01
      9.395  0.2317E+00  0.4024E+01
      9.480  0.6846E+00  0.4068E+01
      9.564  0.1237E+00  0.4094E+01
      9.649  0.1580E+00  0.4106E+01
      9.733  0.1737E+00  0.4120E+01
      9.818  0.1595E+00  0.4134E+01
      9.902  0.2418E+00  0.4148E+01
      9.987  0.1896E+00  0.4165E+01
     10.072  0.5508E+00  0.4199E+01
     10.156  0.3463E+00  0.4242E+01
     10.241  0.3767E+00  0.4268E+01
     10.325  0.1537E+00  0.4292E+01
     10.410  0.3641E+00  0.4315E+01
     10.494  0.8081E-01  0.4330E+01
     10.579  0.1142E+00  0.4338E+01
     10.663  0.1374E+00  0.4349E+01
     10.748  0.1532E+00  0.4361E+01
     10.832  0.1651E+00  0.4375E+01
     10.917  0.1731E+00  0.4389E+01
     11.001  0.1771E+00  0.4404E+01
     11.086  0.1773E+00  0.4419E+01
     11.170  0.1735E+00  0.4434E+01
     11.255  0.1443E+00  0.4448E+01
     11.340  0.2466E+00  0.4468E+01
     11.424  0.7236E+00  0.4494E+01
     11.509  0.2245E+00  0.4518E+01
     11.593  0.2055E+00  0.4536E+01
     11.678  0.2144E+00  0.4553E+01
     11.762  0.2212E+00  0.4572E+01
     11.847  0.1168E+00  0.4586E+01
     11.931  0.9664E-01  0.4595E+01
     12.016  0.2446E+00  0.4605E+01
     12.100  0.2262E+00  0.4638E+01
     12.185  0.1560E+00  0.4649E+01
     12.269  0.3988E-01  0.4660E+01
     12.354  0.0000E+00  0.4660E+01
     12.438  0.0000E+00  0.4660E+01
     12.523  0.0000E+00  0.4660E+01
     12.608  0.0000E+00  0.4660E+01
     12.692  0.0000E+00  0.4660E+01
     12.777  0.0000E+00  0.4660E+01
     12.861  0.0000E+00  0.4660E+01
     12.946  0.0000E+00  0.4660E+01
     13.030  0.0000E+00  0.4660E+01
     13.115  0.0000E+00  0.4660E+01
     13.199  0.0000E+00  0.4660E+01
     13.284  0.0000E+00  0.4660E+01
     13.368  0.0000E+00  0.4660E+01
     13.453  0.0000E+00  0.4660E+01
