[1650559014.636699] [c0801a-s23:70383:0]    ucp_context.c:1075 UCX  ERROR exceeded transports/devices limit (78 requested, up to 64 are supported)
 running on    1 total cores
 distrk:  each k-point on    1 cores,    1 groups
 distr:  one band on    1 cores,    1 groups
 OpenACC runtime initialized ...    1 GPUs detected
 vasp.6.2.0 18Jan21 (build Feb 25 2021 07:51:20) complex                         
 POSCAR found type information on POSCAR B C 
 POSCAR found :  2 types and     112 ions
 scaLAPACK will be used selectively (only on CPU)
 LDA part: xc-table for Pade appr. of Perdew
 -----------------------------------------------------------------------------
|                                                                             |
|           W    W    AA    RRRRR   N    N  II  N    N   GGGG   !!!           |
|           W    W   A  A   R    R  NN   N  II  NN   N  G    G  !!!           |
|           W    W  A    A  R    R  N N  N  II  N N  N  G       !!!           |
|           W WW W  AAAAAA  RRRRR   N  N N  II  N  N N  G  GGG   !            |
|           WW  WW  A    A  R   R   N   NN  II  N   NN  G    G                |
|           W    W  A    A  R    R  N    N  II  N    N   GGGG   !!!           |
|                                                                             |
|     The requested file  could not be found or opened for reading            |
|     k-point information. Automatic k-point generation is used as a          |
|     fallback, which may lead to unwanted results.                           |
|                                                                             |
 -----------------------------------------------------------------------------

 POSCAR, INCAR and KPOINTS ok, starting setup
 FFT: planning ...
 WAVECAR not read
 WARNING: random wavefunctions but no delay for mixing, default for NELMDL
 prediction of wavefunctions initialized - no I/O
 entering main loop
       N       E                     dE             d eps       ncg     rms          rms(c)
DAV:   1     0.136363852569E+04    0.13636E+04   -0.19746E+05  3728   0.176E+03
DAV:   2    -0.713214971301E+03   -0.20769E+04   -0.19592E+04  4680   0.306E+02
DAV:   3    -0.837433910367E+03   -0.12422E+03   -0.12093E+03  4424   0.664E+01
DAV:   4    -0.840268219889E+03   -0.28343E+01   -0.28180E+01  4376   0.105E+01
DAV:   5    -0.840344982744E+03   -0.76763E-01   -0.76621E-01  4352   0.164E+00    0.386E+01
RMM:   6    -0.804418201303E+03    0.35927E+02   -0.32787E+01  3728   0.842E+00    0.217E+01
RMM:   7    -0.793813932563E+03    0.10604E+02   -0.32286E+01  3728   0.878E+00    0.506E+00
RMM:   8    -0.793993554808E+03   -0.17962E+00   -0.33906E+00  3728   0.357E+00    0.227E+00
RMM:   9    -0.794053190239E+03   -0.59635E-01   -0.33807E-01  3728   0.116E+00    0.947E-01
RMM:  10    -0.794038531694E+03    0.14659E-01   -0.80691E-02  3728   0.503E-01    0.404E-01
RMM:  11    -0.794032710558E+03    0.58211E-02   -0.24022E-02  3745   0.256E-01    0.225E-01
RMM:  12    -0.794035027320E+03   -0.23168E-02   -0.55610E-03  3742   0.123E-01    0.125E-01
RMM:  13    -0.794036385463E+03   -0.13581E-02   -0.15557E-03  3744   0.606E-02    0.110E-01
RMM:  14    -0.794037258787E+03   -0.87332E-03   -0.43949E-04  2918   0.323E-02    0.862E-02
RMM:  15    -0.794035886076E+03    0.13727E-02   -0.25463E-04  2645   0.227E-02    0.130E-01
RMM:  16    -0.794035949397E+03   -0.63321E-04   -0.81040E-05  2289   0.151E-02
    1 T=     5. E= -.79396413E+03 F= -.79403595E+03 E0= -.79403595E+03  EK= 0.71817E-01 SP= 0.00E+00 SK= 0.25E-09
 bond charge predicted
 -----------------------------------------------------------------------------
|                                                                             |
|           W    W    AA    RRRRR   N    N  II  N    N   GGGG   !!!           |
|           W    W   A  A   R    R  NN   N  II  NN   N  G    G  !!!           |
|           W    W  A    A  R    R  N N  N  II  N N  N  G       !!!           |
|           W WW W  AAAAAA  RRRRR   N  N N  II  N  N N  G  GGG   !            |
|           WW  WW  A    A  R   R   N   NN  II  N   NN  G    G                |
|           W    W  A    A  R    R  N    N  II  N    N   GGGG   !!!           |
|                                                                             |
|     Tetrahedron method does not include variations of the Fermi             |
|     occupations, so forces and stress will be inaccurate. We suggest        |
|     using a different smearing scheme ISMEAR = 1 or 2 for metals in         |
|     relaxations.                                                            |
|                                                                             |
 -----------------------------------------------------------------------------

       N       E                     dE             d eps       ncg     rms          rms(c)
DAV:   1    -0.794035841374E+03    0.44703E-04   -0.33694E-02  4119   0.400E-01    0.999E-02
RMM:   2    -0.794035280066E+03    0.56131E-03   -0.16169E-03  3728   0.694E-02    0.189E-01
RMM:   3    -0.794036382697E+03   -0.11026E-02   -0.29321E-04  2648   0.302E-02    0.101E-01
RMM:   4    -0.794036503490E+03   -0.12079E-03   -0.16927E-04  2375   0.177E-02    0.817E-02
RMM:   5    -0.794036649892E+03   -0.14640E-03   -0.51618E-05  2125   0.107E-02    0.582E-02
RMM:   6    -0.794036483663E+03    0.16623E-03   -0.17011E-05  1625   0.612E-03    0.729E-02
RMM:   7    -0.794036510511E+03   -0.26847E-04   -0.10847E-05  1580   0.526E-03
    2 T=     5. E= -.79396490E+03 F= -.79403651E+03 E0= -.79403651E+03  EK= 0.71613E-01 SP= 0.19E-05 SK= 0.31E-10
Information: wavefunction orthogonal band  232  0.7734
Information: wavefunction orthogonal band  226  0.8006
Information: wavefunction orthogonal band  232  0.7110
Information: wavefunction orthogonal band  233  0.8632
Information: wavefunction orthogonal band  231  0.8403
Information: wavefunction orthogonal band  232  0.7686
Information: wavefunction orthogonal band  233  0.8946
Information: wavefunction orthogonal band  230  0.8338
Information: wavefunction orthogonal band  233  0.8735
Information: wavefunction orthogonal band  232  0.8864
 bond charge predicted
 prediction of wavefunctions
 -----------------------------------------------------------------------------
|                                                                             |
|           W    W    AA    RRRRR   N    N  II  N    N   GGGG   !!!           |
|           W    W   A  A   R    R  NN   N  II  NN   N  G    G  !!!           |
|           W    W  A    A  R    R  N N  N  II  N N  N  G       !!!           |
|           W WW W  AAAAAA  RRRRR   N  N N  II  N  N N  G  GGG   !            |
|           WW  WW  A    A  R   R   N   NN  II  N   NN  G    G                |
|           W    W  A    A  R    R  N    N  II  N    N   GGGG   !!!           |
|                                                                             |
|     Tetrahedron method does not include variations of the Fermi             |
|     occupations, so forces and stress will be inaccurate. We suggest        |
|     using a different smearing scheme ISMEAR = 1 or 2 for metals in         |
|     relaxations.                                                            |
|                                                                             |
 -----------------------------------------------------------------------------

       N       E                     dE             d eps       ncg     rms          rms(c)
DAV:   1    -0.794035771298E+03    0.71237E-03   -0.14917E-03  2723   0.754E-02    0.879E-02
RMM:   2    -0.794033735364E+03    0.20359E-02   -0.96580E-04  3363   0.383E-02    0.179E-01
RMM:   3    -0.794035303370E+03   -0.15680E-02   -0.27480E-04  2721   0.238E-02    0.894E-02
RMM:   4    -0.794035447767E+03   -0.14440E-03   -0.45433E-05  2025   0.996E-03    0.819E-02
RMM:   5    -0.794035440780E+03    0.69869E-05   -0.60882E-05  2082   0.955E-03
    3 T=     5. E= -.79396477E+03 F= -.79403544E+03 E0= -.79403544E+03  EK= 0.70666E-01 SP= 0.66E-06 SK= 0.59E-07
Information: wavefunction orthogonal band  233  0.8990
 bond charge predicted
 prediction of wavefunctions
 -----------------------------------------------------------------------------
|                                                                             |
|           W    W    AA    RRRRR   N    N  II  N    N   GGGG   !!!           |
|           W    W   A  A   R    R  NN   N  II  NN   N  G    G  !!!           |
|           W    W  A    A  R    R  N N  N  II  N N  N  G       !!!           |
|           W WW W  AAAAAA  RRRRR   N  N N  II  N  N N  G  GGG   !            |
|           WW  WW  A    A  R   R   N   NN  II  N   NN  G    G                |
|           W    W  A    A  R    R  N    N  II  N    N   GGGG   !!!           |
|                                                                             |
|     Tetrahedron method does not include variations of the Fermi             |
|     occupations, so forces and stress will be inaccurate. We suggest        |
|     using a different smearing scheme ISMEAR = 1 or 2 for metals in         |
|     relaxations.                                                            |
|                                                                             |
 -----------------------------------------------------------------------------

       N       E                     dE             d eps       ncg     rms          rms(c)
DAV:   1    -0.794033340150E+03    0.21076E-02   -0.10385E-03  2753   0.733E-02    0.836E-02
RMM:   2    -0.794032101973E+03    0.12382E-02   -0.92029E-04  3276   0.375E-02    0.180E-01
RMM:   3    -0.794033495513E+03   -0.13935E-02   -0.26808E-04  2705   0.237E-02    0.735E-02
RMM:   4    -0.794033668458E+03   -0.17294E-03   -0.57717E-05  2072   0.108E-02    0.659E-02
RMM:   5    -0.794033725533E+03   -0.57076E-04   -0.33088E-05  1747   0.728E-03
    4 T=     5. E= -.79396471E+03 F= -.79403373E+03 E0= -.79403373E+03  EK= 0.69042E-01 SP= -.27E-04 SK= 0.11E-05
Information: wavefunction orthogonal band  232  0.8846
 bond charge predicted
 prediction of wavefunctions
 -----------------------------------------------------------------------------
|                                                                             |
|           W    W    AA    RRRRR   N    N  II  N    N   GGGG   !!!           |
|           W    W   A  A   R    R  NN   N  II  NN   N  G    G  !!!           |
|           W    W  A    A  R    R  N N  N  II  N N  N  G       !!!           |
|           W WW W  AAAAAA  RRRRR   N  N N  II  N  N N  G  GGG   !            |
|           WW  WW  A    A  R   R   N   NN  II  N   NN  G    G                |
|           W    W  A    A  R    R  N    N  II  N    N   GGGG   !!!           |
|                                                                             |
|     Tetrahedron method does not include variations of the Fermi             |
|     occupations, so forces and stress will be inaccurate. We suggest        |
|     using a different smearing scheme ISMEAR = 1 or 2 for metals in         |
|     relaxations.                                                            |
|                                                                             |
 -----------------------------------------------------------------------------

       N       E                     dE             d eps       ncg     rms          rms(c)
DAV:   1    -0.794031229741E+03    0.24387E-02   -0.35889E-04  3106   0.700E-02    0.536E-02
RMM:   2    -0.794029549399E+03    0.16803E-02   -0.39278E-04  2964   0.291E-02    0.140E-01
RMM:   3    -0.794031023470E+03   -0.14741E-02   -0.10709E-04  2086   0.155E-02    0.772E-02
RMM:   4    -0.794031251227E+03   -0.22776E-03   -0.21508E-05  2006   0.741E-03    0.487E-02
RMM:   5    -0.794031345191E+03   -0.93964E-04   -0.10517E-05  1240   0.487E-03
    5 T=     5. E= -.79396462E+03 F= -.79403135E+03 E0= -.79403135E+03  EK= 0.66840E-01 SP= -.12E-03 SK= 0.68E-05
 bond charge predicted
 prediction of wavefunctions
 -----------------------------------------------------------------------------
|                                                                             |
|           W    W    AA    RRRRR   N    N  II  N    N   GGGG   !!!           |
|           W    W   A  A   R    R  NN   N  II  NN   N  G    G  !!!           |
|           W    W  A    A  R    R  N N  N  II  N N  N  G       !!!           |
|           W WW W  AAAAAA  RRRRR   N  N N  II  N  N N  G  GGG   !            |
|           WW  WW  A    A  R   R   N   NN  II  N   NN  G    G                |
|           W    W  A    A  R    R  N    N  II  N    N   GGGG   !!!           |
|                                                                             |
|     Tetrahedron method does not include variations of the Fermi             |
|     occupations, so forces and stress will be inaccurate. We suggest        |
|     using a different smearing scheme ISMEAR = 1 or 2 for metals in         |
|     relaxations.                                                            |
|                                                                             |
 -----------------------------------------------------------------------------

       N       E                     dE             d eps       ncg     rms          rms(c)
DAV:   1    -0.794027729977E+03    0.35213E-02   -0.12238E-03  2884   0.679E-02    0.958E-02
RMM:   2    -0.794026966119E+03    0.76386E-03   -0.92548E-04  3275   0.383E-02    0.182E-01
RMM:   3    -0.794028027242E+03   -0.10611E-02   -0.30908E-04  2793   0.250E-02    0.581E-02
RMM:   4    -0.794028245861E+03   -0.21862E-03   -0.60885E-05  2021   0.114E-02    0.602E-02
RMM:   5    -0.794027974877E+03    0.27098E-03   -0.74785E-05  2072   0.104E-02    0.722E-02
RMM:   6    -0.794028257964E+03   -0.28309E-03   -0.80555E-06  1330   0.521E-03    0.372E-02
RMM:   7    -0.794028339868E+03   -0.81904E-04   -0.30182E-06   852   0.429E-03
    6 T=     4. E= -.79396448E+03 F= -.79402834E+03 E0= -.79402834E+03  EK= 0.64172E-01 SP= -.34E-03 SK= 0.27E-04
 bond charge predicted
 prediction of wavefunctions
 -----------------------------------------------------------------------------
|                                                                             |
|           W    W    AA    RRRRR   N    N  II  N    N   GGGG   !!!           |
|           W    W   A  A   R    R  NN   N  II  NN   N  G    G  !!!           |
|           W    W  A    A  R    R  N N  N  II  N N  N  G       !!!           |
|           W WW W  AAAAAA  RRRRR   N  N N  II  N  N N  G  GGG   !            |
|           WW  WW  A    A  R   R   N   NN  II  N   NN  G    G                |
|           W    W  A    A  R    R  N    N  II  N    N   GGGG   !!!           |
|                                                                             |
|     Tetrahedron method does not include variations of the Fermi             |
|     occupations, so forces and stress will be inaccurate. We suggest        |
|     using a different smearing scheme ISMEAR = 1 or 2 for metals in         |
|     relaxations.                                                            |
|                                                                             |
 -----------------------------------------------------------------------------

       N       E                     dE             d eps       ncg     rms          rms(c)
DAV:   1    -0.794024384151E+03    0.38738E-02   -0.11365E-03  3075   0.724E-02    0.102E-01
RMM:   2    -0.794024126944E+03    0.25721E-03   -0.10991E-03  3285   0.402E-02    0.191E-01
RMM:   3    -0.794024334195E+03   -0.20725E-03   -0.37718E-04  2887   0.272E-02    0.769E-02
RMM:   4    -0.794024658889E+03   -0.32469E-03   -0.63314E-05  2010   0.116E-02    0.707E-02
RMM:   5    -0.794024872620E+03   -0.21373E-03   -0.46792E-05  1840   0.839E-03    0.324E-02
RMM:   6    -0.794024762481E+03    0.11014E-03   -0.55107E-06  1097   0.471E-03    0.524E-02
RMM:   7    -0.794024728391E+03    0.34090E-04   -0.54629E-07   515   0.377E-03
    7 T=     4. E= -.79396420E+03 F= -.79402473E+03 E0= -.79402473E+03  EK= 0.61188E-01 SP= -.74E-03 SK= 0.80E-04
 bond charge predicted
 prediction of wavefunctions
 -----------------------------------------------------------------------------
|                                                                             |
|           W    W    AA    RRRRR   N    N  II  N    N   GGGG   !!!           |
|           W    W   A  A   R    R  NN   N  II  NN   N  G    G  !!!           |
|           W    W  A    A  R    R  N N  N  II  N N  N  G       !!!           |
|           W WW W  AAAAAA  RRRRR   N  N N  II  N  N N  G  GGG   !            |
|           WW  WW  A    A  R   R   N   NN  II  N   NN  G    G                |
|           W    W  A    A  R    R  N    N  II  N    N   GGGG   !!!           |
|                                                                             |
|     Tetrahedron method does not include variations of the Fermi             |
|     occupations, so forces and stress will be inaccurate. We suggest        |
|     using a different smearing scheme ISMEAR = 1 or 2 for metals in         |
|     relaxations.                                                            |
|                                                                             |
 -----------------------------------------------------------------------------

       N       E                     dE             d eps       ncg     rms          rms(c)
DAV:   1    -0.794020362177E+03    0.44003E-02   -0.13450E-03  2733   0.640E-02    0.596E-02
RMM:   2    -0.794019459700E+03    0.90248E-03   -0.45423E-04  2960   0.289E-02    0.155E-01
RMM:   3    -0.794020843958E+03   -0.13843E-02   -0.15388E-04  2225   0.178E-02    0.642E-02
RMM:   4    -0.794020971008E+03   -0.12705E-03   -0.23633E-05  1777   0.778E-03    0.363E-02
RMM:   5    -0.794020926437E+03    0.44571E-04   -0.61404E-06  1072   0.434E-03
    8 T=     4. E= -.79396412E+03 F= -.79402093E+03 E0= -.79402093E+03  EK= 0.58012E-01 SP= -.14E-02 SK= 0.20E-03
 bond charge predicted
 prediction of wavefunctions
 -----------------------------------------------------------------------------
|                                                                             |
|           W    W    AA    RRRRR   N    N  II  N    N   GGGG   !!!           |
|           W    W   A  A   R    R  NN   N  II  NN   N  G    G  !!!           |
|           W    W  A    A  R    R  N N  N  II  N N  N  G       !!!           |
|           W WW W  AAAAAA  RRRRR   N  N N  II  N  N N  G  GGG   !            |
|           WW  WW  A    A  R   R   N   NN  II  N   NN  G    G                |
|           W    W  A    A  R    R  N    N  II  N    N   GGGG   !!!           |
|                                                                             |
|     Tetrahedron method does not include variations of the Fermi             |
|     occupations, so forces and stress will be inaccurate. We suggest        |
|     using a different smearing scheme ISMEAR = 1 or 2 for metals in         |
|     relaxations.                                                            |
|                                                                             |
 -----------------------------------------------------------------------------

       N       E                     dE             d eps       ncg     rms          rms(c)
DAV:   1    -0.794016453666E+03    0.45173E-02   -0.78338E-04  2794   0.593E-02    0.707E-02
RMM:   2    -0.794015275725E+03    0.11779E-02   -0.63609E-04  3206   0.330E-02    0.164E-01
RMM:   3    -0.794016110500E+03   -0.83477E-03   -0.21813E-04  2552   0.208E-02    0.692E-02
RMM:   4    -0.794016524606E+03   -0.41411E-03   -0.31583E-05  1897   0.891E-03    0.474E-02
RMM:   5    -0.794016668935E+03   -0.14433E-03   -0.20233E-05  1396   0.605E-03    0.308E-02
RMM:   6    -0.794016712795E+03   -0.43860E-04   -0.55572E-06  1050   0.449E-03
    9 T=     4. E= -.79396393E+03 F= -.79401671E+03 E0= -.79401671E+03  EK= 0.54770E-01 SP= -.24E-02 SK= 0.41E-03
 bond charge predicted
 prediction of wavefunctions
 -----------------------------------------------------------------------------
|                                                                             |
|           W    W    AA    RRRRR   N    N  II  N    N   GGGG   !!!           |
|           W    W   A  A   R    R  NN   N  II  NN   N  G    G  !!!           |
|           W    W  A    A  R    R  N N  N  II  N N  N  G       !!!           |
|           W WW W  AAAAAA  RRRRR   N  N N  II  N  N N  G  GGG   !            |
|           WW  WW  A    A  R   R   N   NN  II  N   NN  G    G                |
|           W    W  A    A  R    R  N    N  II  N    N   GGGG   !!!           |
|                                                                             |
|     Tetrahedron method does not include variations of the Fermi             |
|     occupations, so forces and stress will be inaccurate. We suggest        |
|     using a different smearing scheme ISMEAR = 1 or 2 for metals in         |
|     relaxations.                                                            |
|                                                                             |
 -----------------------------------------------------------------------------

       N       E                     dE             d eps       ncg     rms          rms(c)
DAV:   1    -0.794011863711E+03    0.48052E-02   -0.19011E-03  3281   0.613E-02    0.823E-02
RMM:   2    -0.794011270568E+03    0.59314E-03   -0.77609E-04  3078   0.341E-02    0.155E-01
RMM:   3    -0.794011970260E+03   -0.69969E-03   -0.25118E-04  2672   0.224E-02    0.537E-02
RMM:   4    -0.794012115600E+03   -0.14534E-03   -0.42622E-05  1973   0.984E-03    0.480E-02
RMM:   5    -0.794012364556E+03   -0.24896E-03   -0.28461E-05  1605   0.681E-03    0.176E-02
RMM:   6    -0.794012334350E+03    0.30206E-04   -0.76250E-06  1162   0.467E-03
   10 T=     4. E= -.79396377E+03 F= -.79401233E+03 E0= -.79401233E+03  EK= 0.51602E-01 SP= -.38E-02 SK= 0.78E-03
Information: wavefunction orthogonal band  232  0.8975
 bond charge predicted
 prediction of wavefunctions
 -----------------------------------------------------------------------------
|                                                                             |
|           W    W    AA    RRRRR   N    N  II  N    N   GGGG   !!!           |
|           W    W   A  A   R    R  NN   N  II  NN   N  G    G  !!!           |
|           W    W  A    A  R    R  N N  N  II  N N  N  G       !!!           |
|           W WW W  AAAAAA  RRRRR   N  N N  II  N  N N  G  GGG   !            |
|           WW  WW  A    A  R   R   N   NN  II  N   NN  G    G                |
|           W    W  A    A  R    R  N    N  II  N    N   GGGG   !!!           |
|                                                                             |
|     Tetrahedron method does not include variations of the Fermi             |
|     occupations, so forces and stress will be inaccurate. We suggest        |
|     using a different smearing scheme ISMEAR = 1 or 2 for metals in         |
|     relaxations.                                                            |
|                                                                             |
 -----------------------------------------------------------------------------

       N       E                     dE             d eps       ncg     rms          rms(c)
DAV:   1    -0.794007295092E+03    0.50695E-02   -0.23786E-03  2842   0.604E-02    0.650E-02
RMM:   2    -0.794007037555E+03    0.25754E-03   -0.39135E-04  2871   0.257E-02    0.141E-01
RMM:   3    -0.794007804076E+03   -0.76652E-03   -0.16115E-04  2261   0.174E-02    0.608E-02
RMM:   4    -0.794007853791E+03   -0.49715E-04   -0.29663E-05  1819   0.841E-03
   11 T=     3. E= -.79396361E+03 F= -.79400785E+03 E0= -.79400785E+03  EK= 0.48621E-01 SP= -.57E-02 SK= 0.14E-02
Information: wavefunction orthogonal band  231  0.8280
Information: wavefunction orthogonal band  233  0.7532
 bond charge predicted
 prediction of wavefunctions
 -----------------------------------------------------------------------------
|                                                                             |
|           W    W    AA    RRRRR   N    N  II  N    N   GGGG   !!!           |
|           W    W   A  A   R    R  NN   N  II  NN   N  G    G  !!!           |
|           W    W  A    A  R    R  N N  N  II  N N  N  G       !!!           |
|           W WW W  AAAAAA  RRRRR   N  N N  II  N  N N  G  GGG   !            |
|           WW  WW  A    A  R   R   N   NN  II  N   NN  G    G                |
|           W    W  A    A  R    R  N    N  II  N    N   GGGG   !!!           |
|                                                                             |
|     Tetrahedron method does not include variations of the Fermi             |
|     occupations, so forces and stress will be inaccurate. We suggest        |
|     using a different smearing scheme ISMEAR = 1 or 2 for metals in         |
|     relaxations.                                                            |
|                                                                             |
 -----------------------------------------------------------------------------

       N       E                     dE             d eps       ncg     rms          rms(c)
DAV:   1    -0.794003650352E+03    0.41537E-02   -0.13139E-04  2531   0.500E-02    0.315E-02
RMM:   2    -0.794002648273E+03    0.10021E-02   -0.21535E-04  2527   0.199E-02    0.868E-02
RMM:   3    -0.794003429351E+03   -0.78108E-03   -0.44179E-05  1974   0.104E-02    0.253E-02
RMM:   4    -0.794003456193E+03   -0.26842E-04   -0.28451E-06   877   0.407E-03
   12 T=     3. E= -.79396353E+03 F= -.79400346E+03 E0= -.79400346E+03  EK= 0.45936E-01 SP= -.82E-02 SK= 0.22E-02
Information: wavefunction orthogonal band  233  0.8725
Information: wavefunction orthogonal band  233  0.8655
Information: wavefunction orthogonal band  232  0.8847
Information: wavefunction orthogonal band  232  0.8736
 bond charge predicted
 prediction of wavefunctions
 -----------------------------------------------------------------------------
|                                                                             |
|           W    W    AA    RRRRR   N    N  II  N    N   GGGG   !!!           |
|           W    W   A  A   R    R  NN   N  II  NN   N  G    G  !!!           |
|           W    W  A    A  R    R  N N  N  II  N N  N  G       !!!           |
|           W WW W  AAAAAA  RRRRR   N  N N  II  N  N N  G  GGG   !            |
|           WW  WW  A    A  R   R   N   NN  II  N   NN  G    G                |
|           W    W  A    A  R    R  N    N  II  N    N   GGGG   !!!           |
|                                                                             |
|     Tetrahedron method does not include variations of the Fermi             |
|     occupations, so forces and stress will be inaccurate. We suggest        |
|     using a different smearing scheme ISMEAR = 1 or 2 for metals in         |
|     relaxations.                                                            |
|                                                                             |
 -----------------------------------------------------------------------------

       N       E                     dE             d eps       ncg     rms          rms(c)
DAV:   1    -0.793998380311E+03    0.50490E-02   -0.17439E-03  3138   0.571E-02    0.102E-01
RMM:   2    -0.793998240530E+03    0.13978E-03   -0.11486E-03  3226   0.393E-02    0.168E-01
RMM:   3    -0.793998703051E+03   -0.46252E-03   -0.36377E-04  2836   0.265E-02    0.637E-02
RMM:   4    -0.793998934093E+03   -0.23104E-03   -0.62771E-05  1928   0.113E-02    0.468E-02
RMM:   5    -0.793999139386E+03   -0.20529E-03   -0.42191E-05  1787   0.789E-03    0.397E-02
RMM:   6    -0.793999166291E+03   -0.26905E-04   -0.11137E-05  1185   0.505E-03
   13 T=     3. E= -.79396349E+03 F= -.79399917E+03 E0= -.79399917E+03  EK= 0.43639E-01 SP= -.11E-01 SK= 0.34E-02
Information: wavefunction orthogonal band  232  0.8877
Information: wavefunction orthogonal band  233  0.8858
 bond charge predicted
 prediction of wavefunctions
 -----------------------------------------------------------------------------
|                                                                             |
|           W    W    AA    RRRRR   N    N  II  N    N   GGGG   !!!           |
|           W    W   A  A   R    R  NN   N  II  NN   N  G    G  !!!           |
|           W    W  A    A  R    R  N N  N  II  N N  N  G       !!!           |
|           W WW W  AAAAAA  RRRRR   N  N N  II  N  N N  G  GGG   !            |
|           WW  WW  A    A  R   R   N   NN  II  N   NN  G    G                |
|           W    W  A    A  R    R  N    N  II  N    N   GGGG   !!!           |
|                                                                             |
|     Tetrahedron method does not include variations of the Fermi             |
|     occupations, so forces and stress will be inaccurate. We suggest        |
|     using a different smearing scheme ISMEAR = 1 or 2 for metals in         |
|     relaxations.                                                            |
|                                                                             |
 -----------------------------------------------------------------------------

       N       E                     dE             d eps       ncg     rms          rms(c)
DAV:   1    -0.793994189440E+03    0.49499E-02   -0.22336E-03  2930   0.605E-02    0.822E-02
RMM:   2    -0.793993896650E+03    0.29279E-03   -0.71249E-04  3048   0.328E-02    0.169E-01
RMM:   3    -0.793995090823E+03   -0.11942E-02   -0.27634E-04  2703   0.231E-02    0.209E-02
RMM:   4    -0.793995020387E+03    0.70435E-04   -0.27599E-05  1876   0.881E-03
   14 T=     3. E= -.79396344E+03 F= -.79399502E+03 E0= -.79399502E+03  EK= 0.41825E-01 SP= -.15E-01 SK= 0.49E-02
Information: wavefunction orthogonal band  232  0.8864
Information: wavefunction orthogonal band  231  0.8919
 bond charge predicted
 prediction of wavefunctions
 -----------------------------------------------------------------------------
|                                                                             |
|           W    W    AA    RRRRR   N    N  II  N    N   GGGG   !!!           |
|           W    W   A  A   R    R  NN   N  II  NN   N  G    G  !!!           |
|           W    W  A    A  R    R  N N  N  II  N N  N  G       !!!           |
|           W WW W  AAAAAA  RRRRR   N  N N  II  N  N N  G  GGG   !            |
|           WW  WW  A    A  R   R   N   NN  II  N   NN  G    G                |
|           W    W  A    A  R    R  N    N  II  N    N   GGGG   !!!           |
|                                                                             |
|     Tetrahedron method does not include variations of the Fermi             |
|     occupations, so forces and stress will be inaccurate. We suggest        |
|     using a different smearing scheme ISMEAR = 1 or 2 for metals in         |
|     relaxations.                                                            |
|                                                                             |
 -----------------------------------------------------------------------------

       N       E                     dE             d eps       ncg     rms          rms(c)
DAV:   1    -0.793990946742E+03    0.41441E-02   -0.14929E-03  2660   0.479E-02    0.846E-02
RMM:   2    -0.793990106401E+03    0.84034E-03   -0.11116E-03  3334   0.385E-02    0.157E-01
RMM:   3    -0.793990669259E+03   -0.56286E-03   -0.30582E-04  2776   0.251E-02    0.546E-02
RMM:   4    -0.793990814777E+03   -0.14552E-03   -0.39915E-05  1827   0.940E-03    0.443E-02
RMM:   5    -0.793990901794E+03   -0.87017E-04   -0.12028E-05  1186   0.494E-03
   15 T=     3. E= -.79396318E+03 F= -.79399090E+03 E0= -.79399090E+03  EK= 0.40585E-01 SP= -.20E-01 SK= 0.69E-02
Information: wavefunction orthogonal band  233  0.8727
Information: wavefunction orthogonal band  233  0.8599
Information: wavefunction orthogonal band  233  0.8858
Information: wavefunction orthogonal band  233  0.8667
 bond charge predicted
 prediction of wavefunctions
 -----------------------------------------------------------------------------
|                                                                             |
|           W    W    AA    RRRRR   N    N  II  N    N   GGGG   !!!           |
|           W    W   A  A   R    R  NN   N  II  NN   N  G    G  !!!           |
|           W    W  A    A  R    R  N N  N  II  N N  N  G       !!!           |
|           W WW W  AAAAAA  RRRRR   N  N N  II  N  N N  G  GGG   !            |
|           WW  WW  A    A  R   R   N   NN  II  N   NN  G    G                |
|           W    W  A    A  R    R  N    N  II  N    N   GGGG   !!!           |
|                                                                             |
|     Tetrahedron method does not include variations of the Fermi             |
|     occupations, so forces and stress will be inaccurate. We suggest        |
|     using a different smearing scheme ISMEAR = 1 or 2 for metals in         |
|     relaxations.                                                            |
|                                                                             |
 -----------------------------------------------------------------------------

       N       E                     dE             d eps       ncg     rms          rms(c)
DAV:   1    -0.793987041942E+03    0.37728E-02   -0.31779E-04  3004   0.442E-02    0.450E-02
RMM:   2    -0.793986863729E+03    0.17821E-03   -0.43754E-04  3097   0.285E-02    0.120E-01
RMM:   3    -0.793987361946E+03   -0.49822E-03   -0.93364E-05  1975   0.150E-02    0.408E-02
RMM:   4    -0.793987386989E+03   -0.25043E-04   -0.94633E-06  1239   0.558E-03
   16 T=     3. E= -.79396325E+03 F= -.79398739E+03 E0= -.79398739E+03  EK= 0.40004E-01 SP= -.25E-01 SK= 0.92E-02
Information: wavefunction orthogonal band  232  0.8542
Information: wavefunction orthogonal band  232  0.8989
 bond charge predicted
 prediction of wavefunctions
 -----------------------------------------------------------------------------
|                                                                             |
|           W    W    AA    RRRRR   N    N  II  N    N   GGGG   !!!           |
|           W    W   A  A   R    R  NN   N  II  NN   N  G    G  !!!           |
|           W    W  A    A  R    R  N N  N  II  N N  N  G       !!!           |
|           W WW W  AAAAAA  RRRRR   N  N N  II  N  N N  G  GGG   !            |
|           WW  WW  A    A  R   R   N   NN  II  N   NN  G    G                |
|           W    W  A    A  R    R  N    N  II  N    N   GGGG   !!!           |
|                                                                             |
|     Tetrahedron method does not include variations of the Fermi             |
|     occupations, so forces and stress will be inaccurate. We suggest        |
|     using a different smearing scheme ISMEAR = 1 or 2 for metals in         |
|     relaxations.                                                            |
|                                                                             |
 -----------------------------------------------------------------------------

       N       E                     dE             d eps       ncg     rms          rms(c)
DAV:   1    -0.793983982574E+03    0.33794E-02   -0.89028E-04  3089   0.435E-02    0.667E-02
RMM:   2    -0.793983262522E+03    0.72005E-03   -0.80365E-04  3472   0.368E-02    0.121E-01
RMM:   3    -0.793983683937E+03   -0.42142E-03   -0.16086E-04  2240   0.194E-02    0.576E-02
RMM:   4    -0.793983753447E+03   -0.69509E-04   -0.18330E-05  1496   0.696E-03
   17 T=     3. E= -.79396286E+03 F= -.79398375E+03 E0= -.79398375E+03  EK= 0.40177E-01 SP= -.31E-01 SK= 0.12E-01
Information: wavefunction orthogonal band  233  0.8991
Information: wavefunction orthogonal band  231  0.8647
Information: wavefunction orthogonal band  233  0.8891
 bond charge predicted
 prediction of wavefunctions
 -----------------------------------------------------------------------------
|                                                                             |
|           W    W    AA    RRRRR   N    N  II  N    N   GGGG   !!!           |
|           W    W   A  A   R    R  NN   N  II  NN   N  G    G  !!!           |
|           W    W  A    A  R    R  N N  N  II  N N  N  G       !!!           |
|           W WW W  AAAAAA  RRRRR   N  N N  II  N  N N  G  GGG   !            |
|           WW  WW  A    A  R   R   N   NN  II  N   NN  G    G                |
|           W    W  A    A  R    R  N    N  II  N    N   GGGG   !!!           |
|                                                                             |
|     Tetrahedron method does not include variations of the Fermi             |
|     occupations, so forces and stress will be inaccurate. We suggest        |
|     using a different smearing scheme ISMEAR = 1 or 2 for metals in         |
|     relaxations.                                                            |
|                                                                             |
 -----------------------------------------------------------------------------

       N       E                     dE             d eps       ncg     rms          rms(c)
DAV:   1    -0.793980509308E+03    0.31746E-02   -0.36210E-04  3065   0.467E-02    0.670E-02
RMM:   2    -0.793980613510E+03   -0.10420E-03   -0.87112E-04  3521   0.383E-02    0.124E-01
RMM:   3    -0.793981112017E+03   -0.49851E-03   -0.17133E-04  2304   0.199E-02    0.254E-02
RMM:   4    -0.793981152879E+03   -0.40861E-04   -0.11170E-05  1361   0.629E-03
   18 T=     3. E= -.79396315E+03 F= -.79398115E+03 E0= -.79398115E+03  EK= 0.41202E-01 SP= -.38E-01 SK= 0.15E-01
Information: wavefunction orthogonal band  231  0.8549
 bond charge predicted
 prediction of wavefunctions
 -----------------------------------------------------------------------------
|                                                                             |
|           W    W    AA    RRRRR   N    N  II  N    N   GGGG   !!!           |
|           W    W   A  A   R    R  NN   N  II  NN   N  G    G  !!!           |
|           W    W  A    A  R    R  N N  N  II  N N  N  G       !!!           |
|           W WW W  AAAAAA  RRRRR   N  N N  II  N  N N  G  GGG   !            |
|           WW  WW  A    A  R   R   N   NN  II  N   NN  G    G                |
|           W    W  A    A  R    R  N    N  II  N    N   GGGG   !!!           |
|                                                                             |
|     Tetrahedron method does not include variations of the Fermi             |
|     occupations, so forces and stress will be inaccurate. We suggest        |
|     using a different smearing scheme ISMEAR = 1 or 2 for metals in         |
|     relaxations.                                                            |
|                                                                             |
 -----------------------------------------------------------------------------

       N       E                     dE             d eps       ncg     rms          rms(c)
DAV:   1    -0.793978033467E+03    0.30786E-02   -0.29729E-03  3216   0.561E-02    0.104E-01
RMM:   2    -0.793978350772E+03   -0.31731E-03   -0.19292E-03  3621   0.530E-02    0.161E-01
RMM:   3    -0.793977860664E+03    0.49011E-03   -0.39650E-04  2954   0.293E-02    0.751E-02
RMM:   4    -0.793978336256E+03   -0.47559E-03   -0.55214E-05  1825   0.108E-02    0.379E-02
RMM:   5    -0.793978503391E+03   -0.16713E-03   -0.30596E-05  1633   0.707E-03    0.206E-02
RMM:   6    -0.793978526376E+03   -0.22985E-04   -0.88214E-06  1179   0.467E-03
   19 T=     3. E= -.79396305E+03 F= -.79397853E+03 E0= -.79397853E+03  EK= 0.43182E-01 SP= -.46E-01 SK= 0.18E-01
Information: wavefunction orthogonal band  233  0.8996
 bond charge predicted
 prediction of wavefunctions
 -----------------------------------------------------------------------------
|                                                                             |
|           W    W    AA    RRRRR   N    N  II  N    N   GGGG   !!!           |
|           W    W   A  A   R    R  NN   N  II  NN   N  G    G  !!!           |
|           W    W  A    A  R    R  N N  N  II  N N  N  G       !!!           |
|           W WW W  AAAAAA  RRRRR   N  N N  II  N  N N  G  GGG   !            |
|           WW  WW  A    A  R   R   N   NN  II  N   NN  G    G                |
|           W    W  A    A  R    R  N    N  II  N    N   GGGG   !!!           |
|                                                                             |
|     Tetrahedron method does not include variations of the Fermi             |
|     occupations, so forces and stress will be inaccurate. We suggest        |
|     using a different smearing scheme ISMEAR = 1 or 2 for metals in         |
|     relaxations.                                                            |
|                                                                             |
 -----------------------------------------------------------------------------

       N       E                     dE             d eps       ncg     rms          rms(c)
DAV:   1    -0.793976064441E+03    0.24389E-02   -0.24213E-04  2947   0.439E-02    0.286E-02
RMM:   2    -0.793975900122E+03    0.16432E-03   -0.26720E-04  2515   0.236E-02    0.951E-02
RMM:   3    -0.793976264082E+03   -0.36396E-03   -0.38068E-05  1941   0.104E-02    0.382E-02
RMM:   4    -0.793976273465E+03   -0.93832E-05   -0.77386E-07   608   0.340E-03
   20 T=     3. E= -.79396295E+03 F= -.79397627E+03 E0= -.79397627E+03  EK= 0.46237E-01 SP= -.54E-01 SK= 0.21E-01
Information: wavefunction orthogonal band  231  0.8691
 bond charge predicted
 prediction of wavefunctions
 -----------------------------------------------------------------------------
|                                                                             |
|           W    W    AA    RRRRR   N    N  II  N    N   GGGG   !!!           |
|           W    W   A  A   R    R  NN   N  II  NN   N  G    G  !!!           |
|           W    W  A    A  R    R  N N  N  II  N N  N  G       !!!           |
|           W WW W  AAAAAA  RRRRR   N  N N  II  N  N N  G  GGG   !            |
|           WW  WW  A    A  R   R   N   NN  II  N   NN  G    G                |
|           W    W  A    A  R    R  N    N  II  N    N   GGGG   !!!           |
|                                                                             |
|     Tetrahedron method does not include variations of the Fermi             |
|     occupations, so forces and stress will be inaccurate. We suggest        |
|     using a different smearing scheme ISMEAR = 1 or 2 for metals in         |
|     relaxations.                                                            |
|                                                                             |
 -----------------------------------------------------------------------------

       N       E                     dE             d eps       ncg     rms          rms(c)
DAV:   1    -0.793974214238E+03    0.20498E-02   -0.18061E-04  2911   0.491E-02    0.315E-02
RMM:   2    -0.793973778889E+03    0.43535E-03   -0.12317E-04  2198   0.182E-02    0.100E-01
RMM:   3    -0.793974302541E+03   -0.52365E-03   -0.53456E-05  1955   0.105E-02    0.170E-02
RMM:   4    -0.793974343153E+03   -0.40612E-04   -0.44247E-06  1007   0.471E-03
   21 T=     4. E= -.79396281E+03 F= -.79397434E+03 E0= -.79397434E+03  EK= 0.50490E-01 SP= -.63E-01 SK= 0.24E-01
 bond charge predicted
 prediction of wavefunctions
 -----------------------------------------------------------------------------
|                                                                             |
|           W    W    AA    RRRRR   N    N  II  N    N   GGGG   !!!           |
|           W    W   A  A   R    R  NN   N  II  NN   N  G    G  !!!           |
|           W    W  A    A  R    R  N N  N  II  N N  N  G       !!!           |
|           W WW W  AAAAAA  RRRRR   N  N N  II  N  N N  G  GGG   !            |
|           WW  WW  A    A  R   R   N   NN  II  N   NN  G    G                |
|           W    W  A    A  R    R  N    N  II  N    N   GGGG   !!!           |
|                                                                             |
|     Tetrahedron method does not include variations of the Fermi             |
|     occupations, so forces and stress will be inaccurate. We suggest        |
|     using a different smearing scheme ISMEAR = 1 or 2 for metals in         |
|     relaxations.                                                            |
|                                                                             |
 -----------------------------------------------------------------------------

       N       E                     dE             d eps       ncg     rms          rms(c)
DAV:   1    -0.793972689078E+03    0.16135E-02   -0.28688E-04  2499   0.493E-02    0.607E-02
RMM:   2    -0.793972182122E+03    0.50696E-03   -0.42913E-04  2930   0.257E-02    0.120E-01
RMM:   3    -0.793972261148E+03   -0.79027E-04   -0.14329E-04  2197   0.171E-02
   22 T=     4. E= -.79396220E+03 F= -.79397226E+03 E0= -.79397226E+03  EK= 0.56067E-01 SP= -.73E-01 SK= 0.27E-01
Information: wavefunction orthogonal band  233  0.8709
Information: wavefunction orthogonal band  232  0.8781
 bond charge predicted
 prediction of wavefunctions
 -----------------------------------------------------------------------------
|                                                                             |
|           W    W    AA    RRRRR   N    N  II  N    N   GGGG   !!!           |
|           W    W   A  A   R    R  NN   N  II  NN   N  G    G  !!!           |
|           W    W  A    A  R    R  N N  N  II  N N  N  G       !!!           |
|           W WW W  AAAAAA  RRRRR   N  N N  II  N  N N  G  GGG   !            |
|           WW  WW  A    A  R   R   N   NN  II  N   NN  G    G                |
|           W    W  A    A  R    R  N    N  II  N    N   GGGG   !!!           |
|                                                                             |
|     Tetrahedron method does not include variations of the Fermi             |
|     occupations, so forces and stress will be inaccurate. We suggest        |
|     using a different smearing scheme ISMEAR = 1 or 2 for metals in         |
|     relaxations.                                                            |
|                                                                             |
 -----------------------------------------------------------------------------

       N       E                     dE             d eps       ncg     rms          rms(c)
DAV:   1    -0.793970991145E+03    0.11910E-02   -0.47750E-04  3361   0.613E-02    0.823E-02
RMM:   2    -0.793971100200E+03   -0.10906E-03   -0.12242E-03  3566   0.443E-02    0.123E-01
RMM:   3    -0.793971386598E+03   -0.28640E-03   -0.23921E-04  2666   0.239E-02    0.335E-02
RMM:   4    -0.793971392484E+03   -0.58868E-05   -0.15424E-05  1604   0.720E-03
   23 T=     4. E= -.79396254E+03 F= -.79397139E+03 E0= -.79397139E+03  EK= 0.63046E-01 SP= -.82E-01 SK= 0.28E-01
Information: wavefunction orthogonal band  233  0.8708
Information: wavefunction orthogonal band  233  0.8660
Information: wavefunction orthogonal band  233  0.8962
 bond charge predicted
 prediction of wavefunctions
 -----------------------------------------------------------------------------
|                                                                             |
|           W    W    AA    RRRRR   N    N  II  N    N   GGGG   !!!           |
|           W    W   A  A   R    R  NN   N  II  NN   N  G    G  !!!           |
|           W    W  A    A  R    R  N N  N  II  N N  N  G       !!!           |
|           W WW W  AAAAAA  RRRRR   N  N N  II  N  N N  G  GGG   !            |
|           WW  WW  A    A  R   R   N   NN  II  N   NN  G    G                |
|           W    W  A    A  R    R  N    N  II  N    N   GGGG   !!!           |
|                                                                             |
|     Tetrahedron method does not include variations of the Fermi             |
|     occupations, so forces and stress will be inaccurate. We suggest        |
|     using a different smearing scheme ISMEAR = 1 or 2 for metals in         |
|     relaxations.                                                            |
|                                                                             |
 -----------------------------------------------------------------------------

       N       E                     dE             d eps       ncg     rms          rms(c)
DAV:   1    -0.793969776059E+03    0.16105E-02   -0.49520E-03  3404   0.816E-02    0.122E-01
RMM:   2    -0.793970415075E+03   -0.63902E-03   -0.27191E-03  3692   0.628E-02    0.147E-01
RMM:   3    -0.793969970568E+03    0.44451E-03   -0.48324E-04  3060   0.337E-02    0.456E-02
RMM:   4    -0.793970134178E+03   -0.16361E-03   -0.82924E-05  1976   0.125E-02    0.300E-02
RMM:   5    -0.793970231871E+03   -0.97693E-04   -0.21276E-05  1291   0.593E-03
   24 T=     5. E= -.79396244E+03 F= -.79397023E+03 E0= -.79397023E+03  EK= 0.71432E-01 SP= -.93E-01 SK= 0.29E-01
Information: wavefunction orthogonal band  233  0.8827
 bond charge predicted
 prediction of wavefunctions
 -----------------------------------------------------------------------------
|                                                                             |
|           W    W    AA    RRRRR   N    N  II  N    N   GGGG   !!!           |
|           W    W   A  A   R    R  NN   N  II  NN   N  G    G  !!!           |
|           W    W  A    A  R    R  N N  N  II  N N  N  G       !!!           |
|           W WW W  AAAAAA  RRRRR   N  N N  II  N  N N  G  GGG   !            |
|           WW  WW  A    A  R   R   N   NN  II  N   NN  G    G                |
|           W    W  A    A  R    R  N    N  II  N    N   GGGG   !!!           |
|                                                                             |
|     Tetrahedron method does not include variations of the Fermi             |
|     occupations, so forces and stress will be inaccurate. We suggest        |
|     using a different smearing scheme ISMEAR = 1 or 2 for metals in         |
|     relaxations.                                                            |
|                                                                             |
 -----------------------------------------------------------------------------

       N       E                     dE             d eps       ncg     rms          rms(c)
DAV:   1    -0.793968821447E+03    0.13127E-02   -0.27381E-04  3122   0.632E-02    0.324E-02
RMM:   2    -0.793968732689E+03    0.88758E-04   -0.33944E-04  2775   0.273E-02
   25 T=     6. E= -.79396200E+03 F= -.79396873E+03 E0= -.79396873E+03  EK= 0.81090E-01 SP= -.10E+00 SK= 0.28E-01
Information: wavefunction orthogonal band  232  0.8772
 bond charge predicted
 prediction of wavefunctions
 -----------------------------------------------------------------------------
|                                                                             |
|           W    W    AA    RRRRR   N    N  II  N    N   GGGG   !!!           |
|           W    W   A  A   R    R  NN   N  II  NN   N  G    G  !!!           |
|           W    W  A    A  R    R  N N  N  II  N N  N  G       !!!           |
|           W WW W  AAAAAA  RRRRR   N  N N  II  N  N N  G  GGG   !            |
|           WW  WW  A    A  R   R   N   NN  II  N   NN  G    G                |
|           W    W  A    A  R    R  N    N  II  N    N   GGGG   !!!           |
|                                                                             |
|     Tetrahedron method does not include variations of the Fermi             |
|     occupations, so forces and stress will be inaccurate. We suggest        |
|     using a different smearing scheme ISMEAR = 1 or 2 for metals in         |
|     relaxations.                                                            |
|                                                                             |
 -----------------------------------------------------------------------------

       N       E                     dE             d eps       ncg     rms          rms(c)
DAV:   1    -0.793967712998E+03    0.11084E-02   -0.15163E-03  3845   0.862E-02    0.283E-02
RMM:   2    -0.793967422305E+03    0.29069E-03   -0.19266E-04  2198   0.280E-02    0.980E-02
RMM:   3    -0.793967722346E+03   -0.30004E-03   -0.47094E-05  1960   0.114E-02    0.161E-02
RMM:   4    -0.793967669015E+03    0.53331E-04   -0.35431E-06   996   0.475E-03
   26 T=     6. E= -.79396213E+03 F= -.79396767E+03 E0= -.79396767E+03  EK= 0.91760E-01 SP= -.11E+00 SK= 0.26E-01
Information: wavefunction orthogonal band  230  0.8795
Information: wavefunction orthogonal band  232  0.8245
Information: wavefunction orthogonal band  233  0.8231
Information: wavefunction orthogonal band  233  0.8699
 bond charge predicted
 prediction of wavefunctions
 -----------------------------------------------------------------------------
|                                                                             |
|           W    W    AA    RRRRR   N    N  II  N    N   GGGG   !!!           |
|           W    W   A  A   R    R  NN   N  II  NN   N  G    G  !!!           |
|           W    W  A    A  R    R  N N  N  II  N N  N  G       !!!           |
|           W WW W  AAAAAA  RRRRR   N  N N  II  N  N N  G  GGG   !            |
|           WW  WW  A    A  R   R   N   NN  II  N   NN  G    G                |
|           W    W  A    A  R    R  N    N  II  N    N   GGGG   !!!           |
|                                                                             |
|     Tetrahedron method does not include variations of the Fermi             |
|     occupations, so forces and stress will be inaccurate. We suggest        |
|     using a different smearing scheme ISMEAR = 1 or 2 for metals in         |
|     relaxations.                                                            |
|                                                                             |
 -----------------------------------------------------------------------------

       N       E                     dE             d eps       ncg     rms          rms(c)
DAV:   1    -0.793965921119E+03    0.18012E-02   -0.45385E-04  3828   0.806E-02    0.651E-02
RMM:   2    -0.793965656674E+03    0.26445E-03   -0.53339E-04  3037   0.334E-02    0.125E-01
RMM:   3    -0.793965854665E+03   -0.19799E-03   -0.15463E-04  2224   0.183E-02    0.632E-02
RMM:   4    -0.793965950447E+03   -0.95782E-04   -0.23780E-05  1715   0.771E-03
   27 T=     7. E= -.79396185E+03 F= -.79396595E+03 E0= -.79396595E+03  EK= 0.10303E+00 SP= -.12E+00 SK= 0.23E-01
Information: wavefunction orthogonal band  230  0.8697
Information: wavefunction orthogonal band  232  0.8974
 bond charge predicted
 prediction of wavefunctions
 -----------------------------------------------------------------------------
|                                                                             |
|           W    W    AA    RRRRR   N    N  II  N    N   GGGG   !!!           |
|           W    W   A  A   R    R  NN   N  II  NN   N  G    G  !!!           |
|           W    W  A    A  R    R  N N  N  II  N N  N  G       !!!           |
|           W WW W  AAAAAA  RRRRR   N  N N  II  N  N N  G  GGG   !            |
|           WW  WW  A    A  R   R   N   NN  II  N   NN  G    G                |
|           W    W  A    A  R    R  N    N  II  N    N   GGGG   !!!           |
|                                                                             |
|     Tetrahedron method does not include variations of the Fermi             |
|     occupations, so forces and stress will be inaccurate. We suggest        |
|     using a different smearing scheme ISMEAR = 1 or 2 for metals in         |
|     relaxations.                                                            |
|                                                                             |
 -----------------------------------------------------------------------------

       N       E                     dE             d eps       ncg     rms          rms(c)
DAV:   1    -0.793963994190E+03    0.18605E-02   -0.19164E-04  3456   0.788E-02    0.467E-02
RMM:   2    -0.793963727915E+03    0.26627E-03   -0.47090E-04  3122   0.322E-02    0.109E-01
RMM:   3    -0.793964059653E+03   -0.33174E-03   -0.80371E-05  1955   0.149E-02    0.619E-02
RMM:   4    -0.793964061657E+03   -0.20045E-05   -0.83654E-06  1321   0.562E-03
   28 T=     8. E= -.79396183E+03 F= -.79396406E+03 E0= -.79396406E+03  EK= 0.11418E+00 SP= -.13E+00 SK= 0.19E-01
 bond charge predicted
 prediction of wavefunctions
 -----------------------------------------------------------------------------
|                                                                             |
|           W    W    AA    RRRRR   N    N  II  N    N   GGGG   !!!           |
|           W    W   A  A   R    R  NN   N  II  NN   N  G    G  !!!           |
|           W    W  A    A  R    R  N N  N  II  N N  N  G       !!!           |
|           W WW W  AAAAAA  RRRRR   N  N N  II  N  N N  G  GGG   !            |
|           WW  WW  A    A  R   R   N   NN  II  N   NN  G    G                |
|           W    W  A    A  R    R  N    N  II  N    N   GGGG   !!!           |
|                                                                             |
|     Tetrahedron method does not include variations of the Fermi             |
|     occupations, so forces and stress will be inaccurate. We suggest        |
|     using a different smearing scheme ISMEAR = 1 or 2 for metals in         |
|     relaxations.                                                            |
|                                                                             |
 -----------------------------------------------------------------------------

       N       E                     dE             d eps       ncg     rms          rms(c)
DAV:   1    -0.793961192227E+03    0.28674E-02   -0.77572E-04  3322   0.855E-02    0.648E-02
RMM:   2    -0.793961100303E+03    0.91924E-04   -0.92158E-04  3570   0.429E-02
   29 T=     9. E= -.79396127E+03 F= -.79396110E+03 E0= -.79396110E+03  EK= 0.12434E+00 SP= -.14E+00 SK= 0.14E-01
Information: wavefunction orthogonal band  232  0.8616
Information: wavefunction orthogonal band  232  0.8703
 bond charge predicted
 prediction of wavefunctions
 -----------------------------------------------------------------------------
|                                                                             |
|           W    W    AA    RRRRR   N    N  II  N    N   GGGG   !!!           |
|           W    W   A  A   R    R  NN   N  II  NN   N  G    G  !!!           |
|           W    W  A    A  R    R  N N  N  II  N N  N  G       !!!           |
|           W WW W  AAAAAA  RRRRR   N  N N  II  N  N N  G  GGG   !            |
|           WW  WW  A    A  R   R   N   NN  II  N   NN  G    G                |
|           W    W  A    A  R    R  N    N  II  N    N   GGGG   !!!           |
|                                                                             |
|     Tetrahedron method does not include variations of the Fermi             |
|     occupations, so forces and stress will be inaccurate. We suggest        |
|     using a different smearing scheme ISMEAR = 1 or 2 for metals in         |
|     relaxations.                                                            |
|                                                                             |
 -----------------------------------------------------------------------------

       N       E                     dE             d eps       ncg     rms          rms(c)
DAV:   1    -0.793957894521E+03    0.32977E-02   -0.52583E-03  4043   0.122E-01    0.149E-01
RMM:   2    -0.793958284097E+03   -0.38958E-03   -0.36495E-03  3728   0.783E-02    0.207E-01
RMM:   3    -0.793957950670E+03    0.33343E-03   -0.67506E-04  3217   0.390E-02    0.486E-02
RMM:   4    -0.793957748772E+03    0.20190E-03   -0.11604E-04  2158   0.153E-02    0.433E-02
RMM:   5    -0.793957737643E+03    0.11130E-04   -0.26797E-05  1565   0.715E-03
   30 T=     9. E= -.79396103E+03 F= -.79395774E+03 E0= -.79395774E+03  EK= 0.13245E+00 SP= -.14E+00 SK= 0.87E-02
Information: wavefunction orthogonal band  231  0.8865
 bond charge predicted
 prediction of wavefunctions
 -----------------------------------------------------------------------------
|                                                                             |
|           W    W    AA    RRRRR   N    N  II  N    N   GGGG   !!!           |
|           W    W   A  A   R    R  NN   N  II  NN   N  G    G  !!!           |
|           W    W  A    A  R    R  N N  N  II  N N  N  G       !!!           |
|           W WW W  AAAAAA  RRRRR   N  N N  II  N  N N  G  GGG   !            |
|           WW  WW  A    A  R   R   N   NN  II  N   NN  G    G                |
|           W    W  A    A  R    R  N    N  II  N    N   GGGG   !!!           |
|                                                                             |
|     Tetrahedron method does not include variations of the Fermi             |
|     occupations, so forces and stress will be inaccurate. We suggest        |
|     using a different smearing scheme ISMEAR = 1 or 2 for metals in         |
|     relaxations.                                                            |
|                                                                             |
 -----------------------------------------------------------------------------

       N       E                     dE             d eps       ncg     rms          rms(c)
DAV:   1    -0.793953909369E+03    0.38394E-02   -0.15833E-02  4103   0.157E-01    0.193E-01
RMM:   2    -0.793955607945E+03   -0.16986E-02   -0.49399E-03  3727   0.864E-02    0.224E-01
RMM:   3    -0.793953352104E+03    0.22558E-02   -0.94214E-04  3351   0.449E-02    0.714E-02
RMM:   4    -0.793953594091E+03   -0.24199E-03   -0.87139E-05  2176   0.146E-02    0.457E-02
RMM:   5    -0.793953574231E+03    0.19860E-04   -0.62022E-05  1906   0.963E-03
   31 T=    10. E= -.79396084E+03 F= -.79395357E+03 E0= -.79395357E+03  EK= 0.13748E+00 SP= -.15E+00 SK= 0.45E-02
Information: wavefunction orthogonal band  233  0.8945
 bond charge predicted
 prediction of wavefunctions
 -----------------------------------------------------------------------------
|                                                                             |
|           W    W    AA    RRRRR   N    N  II  N    N   GGGG   !!!           |
|           W    W   A  A   R    R  NN   N  II  NN   N  G    G  !!!           |
|           W    W  A    A  R    R  N N  N  II  N N  N  G       !!!           |
|           W WW W  AAAAAA  RRRRR   N  N N  II  N  N N  G  GGG   !            |
|           WW  WW  A    A  R   R   N   NN  II  N   NN  G    G                |
|           W    W  A    A  R    R  N    N  II  N    N   GGGG   !!!           |
|                                                                             |
|     Tetrahedron method does not include variations of the Fermi             |
|     occupations, so forces and stress will be inaccurate. We suggest        |
|     using a different smearing scheme ISMEAR = 1 or 2 for metals in         |
|     relaxations.                                                            |
|                                                                             |
 -----------------------------------------------------------------------------

       N       E                     dE             d eps       ncg     rms          rms(c)
DAV:   1    -0.793948323194E+03    0.52709E-02   -0.84446E-03  3420   0.121E-01    0.136E-01
RMM:   2    -0.793949335050E+03   -0.10119E-02   -0.20937E-03  3504   0.538E-02    0.200E-01
RMM:   3    -0.793948433732E+03    0.90132E-03   -0.65198E-04  3148   0.356E-02    0.571E-02
RMM:   4    -0.793948400677E+03    0.33055E-04   -0.58156E-05  2032   0.123E-02
   32 T=    10. E= -.79396036E+03 F= -.79394840E+03 E0= -.79394840E+03  EK= 0.13889E+00 SP= -.15E+00 SK= 0.16E-02
Information: wavefunction orthogonal band  233  0.8534
Information: wavefunction orthogonal band  232  0.8671
Information: wavefunction orthogonal band  231  0.8712
 bond charge predicted
 prediction of wavefunctions
 -----------------------------------------------------------------------------
|                                                                             |
|           W    W    AA    RRRRR   N    N  II  N    N   GGGG   !!!           |
|           W    W   A  A   R    R  NN   N  II  NN   N  G    G  !!!           |
|           W    W  A    A  R    R  N N  N  II  N N  N  G       !!!           |
|           W WW W  AAAAAA  RRRRR   N  N N  II  N  N N  G  GGG   !            |
|           WW  WW  A    A  R   R   N   NN  II  N   NN  G    G                |
|           W    W  A    A  R    R  N    N  II  N    N   GGGG   !!!           |
|                                                                             |
|     Tetrahedron method does not include variations of the Fermi             |
|     occupations, so forces and stress will be inaccurate. We suggest        |
|     using a different smearing scheme ISMEAR = 1 or 2 for metals in         |
|     relaxations.                                                            |
|                                                                             |
 -----------------------------------------------------------------------------

       N       E                     dE             d eps       ncg     rms          rms(c)
DAV:   1    -0.793942505290E+03    0.59284E-02   -0.50363E-04  3260   0.909E-02    0.797E-02
RMM:   2    -0.793942638314E+03   -0.13302E-03   -0.11909E-03  3485   0.431E-02    0.164E-01
RMM:   3    -0.793942756858E+03   -0.11854E-03   -0.27951E-04  2740   0.251E-02    0.408E-02
RMM:   4    -0.793942764528E+03   -0.76706E-05   -0.24240E-05  1789   0.824E-03
   33 T=    10. E= -.79396008E+03 F= -.79394276E+03 E0= -.79394276E+03  EK= 0.13646E+00 SP= -.15E+00 SK= 0.15E-03
Information: wavefunction orthogonal band  233  0.8730
Information: wavefunction orthogonal band  233  0.8733
Information: wavefunction orthogonal band  231  0.8787
 bond charge predicted
 prediction of wavefunctions
 -----------------------------------------------------------------------------
|                                                                             |
|           W    W    AA    RRRRR   N    N  II  N    N   GGGG   !!!           |
|           W    W   A  A   R    R  NN   N  II  NN   N  G    G  !!!           |
|           W    W  A    A  R    R  N N  N  II  N N  N  G       !!!           |
|           W WW W  AAAAAA  RRRRR   N  N N  II  N  N N  G  GGG   !            |
|           WW  WW  A    A  R   R   N   NN  II  N   NN  G    G                |
|           W    W  A    A  R    R  N    N  II  N    N   GGGG   !!!           |
|                                                                             |
|     Tetrahedron method does not include variations of the Fermi             |
|     occupations, so forces and stress will be inaccurate. We suggest        |
|     using a different smearing scheme ISMEAR = 1 or 2 for metals in         |
|     relaxations.                                                            |
|                                                                             |
 -----------------------------------------------------------------------------

       N       E                     dE             d eps       ncg     rms          rms(c)
DAV:   1    -0.793936238257E+03    0.65186E-02   -0.14719E-03  3377   0.951E-02    0.946E-02
RMM:   2    -0.793937015906E+03   -0.77765E-03   -0.18875E-03  3639   0.558E-02    0.175E-01
RMM:   3    -0.793935963648E+03    0.10523E-02   -0.31618E-04  2802   0.279E-02    0.729E-02
RMM:   4    -0.793936134721E+03   -0.17107E-03   -0.38313E-05  1921   0.958E-03    0.750E-02
RMM:   5    -0.793936456226E+03   -0.32150E-03   -0.78371E-05  1981   0.103E-02    0.329E-02
RMM:   6    -0.793936381850E+03    0.74376E-04   -0.63445E-06  1153   0.485E-03
   34 T=     9. E= -.79395960E+03 F= -.79393638E+03 E0= -.79393638E+03  EK= 0.13044E+00 SP= -.15E+00 SK= 0.18E-03
Information: wavefunction orthogonal band  231  0.8770
Information: wavefunction orthogonal band  232  0.8471
 bond charge predicted
 prediction of wavefunctions
 -----------------------------------------------------------------------------
|                                                                             |
|           W    W    AA    RRRRR   N    N  II  N    N   GGGG   !!!           |
|           W    W   A  A   R    R  NN   N  II  NN   N  G    G  !!!           |
|           W    W  A    A  R    R  N N  N  II  N N  N  G       !!!           |
|           W WW W  AAAAAA  RRRRR   N  N N  II  N  N N  G  GGG   !            |
|           WW  WW  A    A  R   R   N   NN  II  N   NN  G    G                |
|           W    W  A    A  R    R  N    N  II  N    N   GGGG   !!!           |
|                                                                             |
|     Tetrahedron method does not include variations of the Fermi             |
|     occupations, so forces and stress will be inaccurate. We suggest        |
|     using a different smearing scheme ISMEAR = 1 or 2 for metals in         |
|     relaxations.                                                            |
|                                                                             |
 -----------------------------------------------------------------------------

       N       E                     dE             d eps       ncg     rms          rms(c)
DAV:   1    -0.793929605865E+03    0.68504E-02   -0.20817E-03  3549   0.906E-02    0.106E-01
RMM:   2    -0.793930722929E+03   -0.11171E-02   -0.12335E-03  3354   0.433E-02    0.158E-01
RMM:   3    -0.793929342395E+03    0.13805E-02   -0.35617E-04  2866   0.271E-02    0.711E-02
RMM:   4    -0.793929781933E+03   -0.43954E-03   -0.21073E-04  2589   0.177E-02    0.480E-02
RMM:   5    -0.793929805851E+03   -0.23918E-04   -0.40915E-05  1792   0.881E-03
   35 T=     8. E= -.79395931E+03 F= -.79392981E+03 E0= -.79392981E+03  EK= 0.12150E+00 SP= -.15E+00 SK= 0.13E-02
Information: wavefunction orthogonal band  232  0.8386
Information: wavefunction orthogonal band  233  0.8981
 bond charge predicted
 prediction of wavefunctions
 -----------------------------------------------------------------------------
|                                                                             |
|           W    W    AA    RRRRR   N    N  II  N    N   GGGG   !!!           |
|           W    W   A  A   R    R  NN   N  II  NN   N  G    G  !!!           |
|           W    W  A    A  R    R  N N  N  II  N N  N  G       !!!           |
|           W WW W  AAAAAA  RRRRR   N  N N  II  N  N N  G  GGG   !            |
|           WW  WW  A    A  R   R   N   NN  II  N   NN  G    G                |
|           W    W  A    A  R    R  N    N  II  N    N   GGGG   !!!           |
|                                                                             |
|     Tetrahedron method does not include variations of the Fermi             |
|     occupations, so forces and stress will be inaccurate. We suggest        |
|     using a different smearing scheme ISMEAR = 1 or 2 for metals in         |
|     relaxations.                                                            |
|                                                                             |
 -----------------------------------------------------------------------------

       N       E                     dE             d eps       ncg     rms          rms(c)
DAV:   1    -0.793922699361E+03    0.70826E-02   -0.47523E-03  3411   0.890E-02    0.684E-02
RMM:   2    -0.793923122890E+03   -0.42353E-03   -0.43964E-04  2890   0.280E-02    0.147E-01
RMM:   3    -0.793922816058E+03    0.30683E-03   -0.19348E-04  2366   0.193E-02    0.452E-02
RMM:   4    -0.793922867890E+03   -0.51832E-04   -0.20952E-05  1763   0.794E-03
   36 T=     8. E= -.79395873E+03 F= -.79392287E+03 E0= -.79392287E+03  EK= 0.11073E+00 SP= -.15E+00 SK= 0.30E-02
Information: wavefunction orthogonal band  231  0.8936
Information: wavefunction orthogonal band  233  0.8459
Information: wavefunction orthogonal band  232  0.8754
Information: wavefunction orthogonal band  232  0.8067
 bond charge predicted
 prediction of wavefunctions
 -----------------------------------------------------------------------------
|                                                                             |
|           W    W    AA    RRRRR   N    N  II  N    N   GGGG   !!!           |
|           W    W   A  A   R    R  NN   N  II  NN   N  G    G  !!!           |
|           W    W  A    A  R    R  N N  N  II  N N  N  G       !!!           |
|           W WW W  AAAAAA  RRRRR   N  N N  II  N  N N  G  GGG   !            |
|           WW  WW  A    A  R   R   N   NN  II  N   NN  G    G                |
|           W    W  A    A  R    R  N    N  II  N    N   GGGG   !!!           |
|                                                                             |
|     Tetrahedron method does not include variations of the Fermi             |
|     occupations, so forces and stress will be inaccurate. We suggest        |
|     using a different smearing scheme ISMEAR = 1 or 2 for metals in         |
|     relaxations.                                                            |
|                                                                             |
 -----------------------------------------------------------------------------

       N       E                     dE             d eps       ncg     rms          rms(c)
DAV:   1    -0.793916389928E+03    0.64261E-02   -0.32670E-03  3267   0.888E-02    0.121E-01
RMM:   2    -0.793918259099E+03   -0.18692E-02   -0.16593E-03  3441   0.472E-02    0.165E-01
RMM:   3    -0.793915937984E+03    0.23211E-02   -0.47049E-04  2992   0.310E-02    0.707E-02
RMM:   4    -0.793916168999E+03   -0.23102E-03   -0.16796E-04  2387   0.165E-02    0.340E-02
RMM:   5    -0.793916245072E+03   -0.76073E-04   -0.27886E-05  1391   0.721E-03
   37 T=     7. E= -.79395820E+03 F= -.79391625E+03 E0= -.79391625E+03  EK= 0.99236E-01 SP= -.15E+00 SK= 0.47E-02
Information: wavefunction orthogonal band  233  0.8740
Information: wavefunction orthogonal band  233  0.8799
 bond charge predicted
 prediction of wavefunctions
 -----------------------------------------------------------------------------
|                                                                             |
|           W    W    AA    RRRRR   N    N  II  N    N   GGGG   !!!           |
|           W    W   A  A   R    R  NN   N  II  NN   N  G    G  !!!           |
|           W    W  A    A  R    R  N N  N  II  N N  N  G       !!!           |
|           W WW W  AAAAAA  RRRRR   N  N N  II  N  N N  G  GGG   !            |
|           WW  WW  A    A  R   R   N   NN  II  N   NN  G    G                |
|           W    W  A    A  R    R  N    N  II  N    N   GGGG   !!!           |
|                                                                             |
|     Tetrahedron method does not include variations of the Fermi             |
|     occupations, so forces and stress will be inaccurate. We suggest        |
|     using a different smearing scheme ISMEAR = 1 or 2 for metals in         |
|     relaxations.                                                            |
|                                                                             |
 -----------------------------------------------------------------------------

       N       E                     dE             d eps       ncg     rms          rms(c)
DAV:   1    -0.793910058691E+03    0.61103E-02   -0.11119E-03  2810   0.765E-02    0.585E-02
RMM:   2    -0.793910565637E+03   -0.50695E-03   -0.65729E-04  3024   0.324E-02    0.143E-01
RMM:   3    -0.793909937638E+03    0.62800E-03   -0.17096E-04  2287   0.195E-02    0.597E-02
RMM:   4    -0.793910072561E+03   -0.13492E-03   -0.27442E-05  1789   0.811E-03    0.298E-02
RMM:   5    -0.793910105427E+03   -0.32866E-04   -0.16194E-07   452   0.335E-03
   38 T=     6. E= -.79395773E+03 F= -.79391011E+03 E0= -.79391011E+03  EK= 0.87867E-01 SP= -.14E+00 SK= 0.60E-02
Information: wavefunction orthogonal band  233  0.8932
 bond charge predicted
 prediction of wavefunctions
 -----------------------------------------------------------------------------
|                                                                             |
|           W    W    AA    RRRRR   N    N  II  N    N   GGGG   !!!           |
|           W    W   A  A   R    R  NN   N  II  NN   N  G    G  !!!           |
|           W    W  A    A  R    R  N N  N  II  N N  N  G       !!!           |
|           W WW W  AAAAAA  RRRRR   N  N N  II  N  N N  G  GGG   !            |
|           WW  WW  A    A  R   R   N   NN  II  N   NN  G    G                |
|           W    W  A    A  R    R  N    N  II  N    N   GGGG   !!!           |
|                                                                             |
|     Tetrahedron method does not include variations of the Fermi             |
|     occupations, so forces and stress will be inaccurate. We suggest        |
|     using a different smearing scheme ISMEAR = 1 or 2 for metals in         |
|     relaxations.                                                            |
|                                                                             |
 -----------------------------------------------------------------------------

       N       E                     dE             d eps       ncg     rms          rms(c)
DAV:   1    -0.793904786596E+03    0.52860E-02   -0.13413E-03  2810   0.720E-02    0.114E-01
RMM:   2    -0.793906952361E+03   -0.21658E-02   -0.21023E-03  3570   0.526E-02    0.161E-01
RMM:   3    -0.793904442024E+03    0.25103E-02   -0.44762E-04  2972   0.310E-02    0.717E-02
RMM:   4    -0.793904319773E+03    0.12225E-03   -0.11575E-04  2166   0.140E-02    0.445E-02
RMM:   5    -0.793904436847E+03   -0.11707E-03   -0.37962E-05  1382   0.737E-03    0.297E-02
RMM:   6    -0.793904547841E+03   -0.11099E-03   -0.22208E-05  1489   0.632E-03    0.274E-02
RMM:   7    -0.793904558193E+03   -0.10351E-04   -0.39491E-06   812   0.410E-03
   39 T=     5. E= -.79395721E+03 F= -.79390456E+03 E0= -.79390456E+03  EK= 0.77345E-01 SP= -.14E+00 SK= 0.67E-02
Information: wavefunction orthogonal band  232  0.8969
 bond charge predicted
 prediction of wavefunctions
 -----------------------------------------------------------------------------
|                                                                             |
|           W    W    AA    RRRRR   N    N  II  N    N   GGGG   !!!           |
|           W    W   A  A   R    R  NN   N  II  NN   N  G    G  !!!           |
|           W    W  A    A  R    R  N N  N  II  N N  N  G       !!!           |
|           W WW W  AAAAAA  RRRRR   N  N N  II  N  N N  G  GGG   !            |
|           WW  WW  A    A  R   R   N   NN  II  N   NN  G    G                |
|           W    W  A    A  R    R  N    N  II  N    N   GGGG   !!!           |
|                                                                             |
|     Tetrahedron method does not include variations of the Fermi             |
|     occupations, so forces and stress will be inaccurate. We suggest        |
[...]
|           W    W  A    A  R    R  N N  N  II  N N  N  G       !!!           |
|           W WW W  AAAAAA  RRRRR   N  N N  II  N  N N  G  GGG   !            |
|           WW  WW  A    A  R   R   N   NN  II  N   NN  G    G                |
|           W    W  A    A  R    R  N    N  II  N    N   GGGG   !!!           |
|                                                                             |
|     Tetrahedron method does not include variations of the Fermi             |
|     occupations, so forces and stress will be inaccurate. We suggest        |
|     using a different smearing scheme ISMEAR = 1 or 2 for metals in         |
|     relaxations.                                                            |
|                                                                             |
 -----------------------------------------------------------------------------

       N       E                     dE             d eps       ncg     rms          rms(c)
DAV:   1    -0.793980409148E+03    0.70724E-03   -0.95768E-04  2675   0.711E-02    0.827E-02
RMM:   2    -0.793979283988E+03    0.11252E-02   -0.10084E-03  3344   0.377E-02    0.153E-01
RMM:   3    -0.793980686409E+03   -0.14024E-02   -0.26208E-04  2740   0.236E-02    0.655E-02
RMM:   4    -0.793980924314E+03   -0.23791E-03   -0.10502E-04  2154   0.132E-02    0.477E-02
RMM:   5    -0.793980871121E+03    0.53193E-04   -0.18153E-05  1240   0.592E-03
   92 T=     5. E= -.79396720E+03 F= -.79398087E+03 E0= -.79398087E+03  EK= 0.73115E-01 SP= -.60E-01 SK= 0.89E-03
 bond charge predicted
 prediction of wavefunctions
 -----------------------------------------------------------------------------
|                                                                             |
|           W    W    AA    RRRRR   N    N  II  N    N   GGGG   !!!           |
|           W    W   A  A   R    R  NN   N  II  NN   N  G    G  !!!           |
|           W    W  A    A  R    R  N N  N  II  N N  N  G       !!!           |
|           W WW W  AAAAAA  RRRRR   N  N N  II  N  N N  G  GGG   !            |
|           WW  WW  A    A  R   R   N   NN  II  N   NN  G    G                |
|           W    W  A    A  R    R  N    N  II  N    N   GGGG   !!!           |
|                                                                             |
|     Tetrahedron method does not include variations of the Fermi             |
|     occupations, so forces and stress will be inaccurate. We suggest        |
|     using a different smearing scheme ISMEAR = 1 or 2 for metals in         |
|     relaxations.                                                            |
|                                                                             |
 -----------------------------------------------------------------------------

       N       E                     dE             d eps       ncg     rms          rms(c)
DAV:   1    -0.793980399015E+03    0.52530E-03   -0.97947E-04  2627   0.671E-02    0.643E-02
RMM:   2    -0.793978673704E+03    0.17253E-02   -0.62117E-04  3066   0.308E-02    0.144E-01
RMM:   3    -0.793980989789E+03   -0.23161E-02   -0.18470E-04  2365   0.195E-02    0.536E-02
RMM:   4    -0.793980980577E+03    0.92117E-05   -0.23561E-05  1742   0.782E-03
   93 T=     5. E= -.79396825E+03 F= -.79398098E+03 E0= -.79398098E+03  EK= 0.70385E-01 SP= -.59E-01 SK= 0.89E-03
Information: wavefunction orthogonal band  230  0.8810
Information: wavefunction orthogonal band  232  0.8961
 bond charge predicted
 prediction of wavefunctions
 -----------------------------------------------------------------------------
|                                                                             |
|           W    W    AA    RRRRR   N    N  II  N    N   GGGG   !!!           |
|           W    W   A  A   R    R  NN   N  II  NN   N  G    G  !!!           |
|           W    W  A    A  R    R  N N  N  II  N N  N  G       !!!           |
|           W WW W  AAAAAA  RRRRR   N  N N  II  N  N N  G  GGG   !            |
|           WW  WW  A    A  R   R   N   NN  II  N   NN  G    G                |
|           W    W  A    A  R    R  N    N  II  N    N   GGGG   !!!           |
|                                                                             |
|     Tetrahedron method does not include variations of the Fermi             |
|     occupations, so forces and stress will be inaccurate. We suggest        |
|     using a different smearing scheme ISMEAR = 1 or 2 for metals in         |
|     relaxations.                                                            |
|                                                                             |
 -----------------------------------------------------------------------------

       N       E                     dE             d eps       ncg     rms          rms(c)
DAV:   1    -0.793980467411E+03    0.52238E-03   -0.84873E-04  2712   0.633E-02    0.767E-02
RMM:   2    -0.793978641448E+03    0.18260E-02   -0.11876E-03  3461   0.408E-02    0.153E-01
RMM:   3    -0.793980220082E+03   -0.15786E-02   -0.25942E-04  2735   0.239E-02    0.661E-02
RMM:   4    -0.793980402847E+03   -0.18276E-03   -0.37519E-05  1784   0.891E-03    0.525E-02
RMM:   5    -0.793980540017E+03   -0.13717E-03   -0.13034E-05  1164   0.504E-03    0.477E-02
RMM:   6    -0.793980495929E+03    0.44088E-04   -0.15242E-05  1432   0.551E-03
   94 T=     5. E= -.79396867E+03 F= -.79398050E+03 E0= -.79398050E+03  EK= 0.67796E-01 SP= -.57E-01 SK= 0.82E-03
 bond charge predicted
 prediction of wavefunctions
 -----------------------------------------------------------------------------
|                                                                             |
|           W    W    AA    RRRRR   N    N  II  N    N   GGGG   !!!           |
|           W    W   A  A   R    R  NN   N  II  NN   N  G    G  !!!           |
|           W    W  A    A  R    R  N N  N  II  N N  N  G       !!!           |
|           W WW W  AAAAAA  RRRRR   N  N N  II  N  N N  G  GGG   !            |
|           WW  WW  A    A  R   R   N   NN  II  N   NN  G    G                |
|           W    W  A    A  R    R  N    N  II  N    N   GGGG   !!!           |
|                                                                             |
|     Tetrahedron method does not include variations of the Fermi             |
|     occupations, so forces and stress will be inaccurate. We suggest        |
|     using a different smearing scheme ISMEAR = 1 or 2 for metals in         |
|     relaxations.                                                            |
|                                                                             |
 -----------------------------------------------------------------------------

       N       E                     dE             d eps       ncg     rms          rms(c)
DAV:   1    -0.793979700656E+03    0.83936E-03   -0.11944E-03  2649   0.640E-02    0.692E-02
RMM:   2    -0.793978278231E+03    0.14224E-02   -0.10728E-03  3495   0.397E-02    0.156E-01
RMM:   3    -0.793980429956E+03   -0.21517E-02   -0.23009E-04  2626   0.227E-02    0.713E-02
RMM:   4    -0.793980220025E+03    0.20993E-03   -0.58980E-05  1857   0.103E-02    0.402E-02
RMM:   5    -0.793980295808E+03   -0.75783E-04   -0.82418E-06  1027   0.432E-03
   95 T=     5. E= -.79396926E+03 F= -.79398030E+03 E0= -.79398030E+03  EK= 0.65458E-01 SP= -.55E-01 SK= 0.70E-03
Information: wavefunction orthogonal band  231  0.8996
 bond charge predicted
 prediction of wavefunctions
 -----------------------------------------------------------------------------
|                                                                             |
|           W    W    AA    RRRRR   N    N  II  N    N   GGGG   !!!           |
|           W    W   A  A   R    R  NN   N  II  NN   N  G    G  !!!           |
|           W    W  A    A  R    R  N N  N  II  N N  N  G       !!!           |
|           W WW W  AAAAAA  RRRRR   N  N N  II  N  N N  G  GGG   !            |
|           WW  WW  A    A  R   R   N   NN  II  N   NN  G    G                |
|           W    W  A    A  R    R  N    N  II  N    N   GGGG   !!!           |
|                                                                             |
|     Tetrahedron method does not include variations of the Fermi             |
|     occupations, so forces and stress will be inaccurate. We suggest        |
|     using a different smearing scheme ISMEAR = 1 or 2 for metals in         |
|     relaxations.                                                            |
|                                                                             |
 -----------------------------------------------------------------------------

       N       E                     dE             d eps       ncg     rms          rms(c)
DAV:   1    -0.793979366541E+03    0.85348E-03   -0.29794E-03  2612   0.650E-02    0.945E-02
RMM:   2    -0.793978655658E+03    0.71088E-03   -0.13561E-03  3511   0.429E-02    0.164E-01
RMM:   3    -0.793980152828E+03   -0.14972E-02   -0.36034E-04  2878   0.270E-02    0.664E-02
RMM:   4    -0.793980386471E+03   -0.23364E-03   -0.76739E-05  1930   0.117E-02    0.394E-02
RMM:   5    -0.793980395522E+03   -0.90512E-05   -0.98452E-06  1053   0.457E-03
   96 T=     4. E= -.79397001E+03 F= -.79398040E+03 E0= -.79398040E+03  EK= 0.63462E-01 SP= -.54E-01 SK= 0.55E-03
Information: wavefunction orthogonal band  232  0.8987
Information: wavefunction orthogonal band  233  0.8983
Information: wavefunction orthogonal band  233  0.8526
Information: wavefunction orthogonal band  233  0.8659
 bond charge predicted
 prediction of wavefunctions
 -----------------------------------------------------------------------------
|                                                                             |
|           W    W    AA    RRRRR   N    N  II  N    N   GGGG   !!!           |
|           W    W   A  A   R    R  NN   N  II  NN   N  G    G  !!!           |
|           W    W  A    A  R    R  N N  N  II  N N  N  G       !!!           |
|           W WW W  AAAAAA  RRRRR   N  N N  II  N  N N  G  GGG   !            |
|           WW  WW  A    A  R   R   N   NN  II  N   NN  G    G                |
|           W    W  A    A  R    R  N    N  II  N    N   GGGG   !!!           |
|                                                                             |
|     Tetrahedron method does not include variations of the Fermi             |
|     occupations, so forces and stress will be inaccurate. We suggest        |
|     using a different smearing scheme ISMEAR = 1 or 2 for metals in         |
|     relaxations.                                                            |
|                                                                             |
 -----------------------------------------------------------------------------

       N       E                     dE             d eps       ncg     rms          rms(c)
DAV:   1    -0.793980044470E+03    0.34200E-03   -0.37276E-04  2716   0.605E-02    0.752E-02
RMM:   2    -0.793978506376E+03    0.15381E-02   -0.85018E-04  3294   0.364E-02    0.161E-01
RMM:   3    -0.793979908715E+03   -0.14023E-02   -0.24164E-04  2675   0.222E-02    0.760E-02
RMM:   4    -0.793980096485E+03   -0.18777E-03   -0.42284E-05  1868   0.938E-03    0.645E-02
RMM:   5    -0.793979998779E+03    0.97706E-04   -0.58997E-06  1016   0.445E-03
   97 T=     4. E= -.79397007E+03 F= -.79398000E+03 E0= -.79398000E+03  EK= 0.61872E-01 SP= -.52E-01 SK= 0.39E-03
Information: wavefunction orthogonal band  233  0.8986
 bond charge predicted
 prediction of wavefunctions
 -----------------------------------------------------------------------------
|                                                                             |
|           W    W    AA    RRRRR   N    N  II  N    N   GGGG   !!!           |
|           W    W   A  A   R    R  NN   N  II  NN   N  G    G  !!!           |
|           W    W  A    A  R    R  N N  N  II  N N  N  G       !!!           |
|           W WW W  AAAAAA  RRRRR   N  N N  II  N  N N  G  GGG   !            |
|           WW  WW  A    A  R   R   N   NN  II  N   NN  G    G                |
|           W    W  A    A  R    R  N    N  II  N    N   GGGG   !!!           |
|                                                                             |
|     Tetrahedron method does not include variations of the Fermi             |
|     occupations, so forces and stress will be inaccurate. We suggest        |
|     using a different smearing scheme ISMEAR = 1 or 2 for metals in         |
|     relaxations.                                                            |
|                                                                             |
 -----------------------------------------------------------------------------

       N       E                     dE             d eps       ncg     rms          rms(c)
DAV:   1    -0.793978883204E+03    0.12133E-02   -0.25518E-04  2851   0.618E-02    0.113E-01
RMM:   2    -0.793979341661E+03   -0.45846E-03   -0.17868E-03  3522   0.499E-02    0.189E-01
RMM:   3    -0.793980731878E+03   -0.13902E-02   -0.44741E-04  2983   0.303E-02    0.778E-02
RMM:   4    -0.793980187212E+03    0.54467E-03   -0.13959E-04  2322   0.151E-02    0.573E-02
RMM:   5    -0.793980429366E+03   -0.24215E-03   -0.17373E-05  1397   0.629E-03    0.427E-02
RMM:   6    -0.793979087990E+03    0.13414E-02   -0.11647E-04  2193   0.138E-02    0.105E-01
RMM:   7    -0.793980291154E+03   -0.12032E-02   -0.42811E-05  1990   0.899E-03    0.522E-02
RMM:   8    -0.793980407094E+03   -0.11594E-03   -0.72641E-06  1105   0.461E-03    0.481E-02
RMM:   9    -0.793979959317E+03    0.44778E-03   -0.34613E-05  1780   0.746E-03    0.564E-02
RMM:  10    -0.793980342042E+03   -0.38272E-03   -0.17745E-06   587   0.405E-03    0.357E-02
RMM:  11    -0.793980263945E+03    0.78097E-04   -0.98877E-06  1276   0.514E-03
   98 T=     4. E= -.79397060E+03 F= -.79398026E+03 E0= -.79398026E+03  EK= 0.60706E-01 SP= -.51E-01 SK= 0.24E-03
Information: wavefunction orthogonal band  233  0.8970
Information: wavefunction orthogonal band  232  0.8949
 bond charge predicted
 prediction of wavefunctions
 -----------------------------------------------------------------------------
|                                                                             |
|           W    W    AA    RRRRR   N    N  II  N    N   GGGG   !!!           |
|           W    W   A  A   R    R  NN   N  II  NN   N  G    G  !!!           |
|           W    W  A    A  R    R  N N  N  II  N N  N  G       !!!           |
|           W WW W  AAAAAA  RRRRR   N  N N  II  N  N N  G  GGG   !            |
|           WW  WW  A    A  R   R   N   NN  II  N   NN  G    G                |
|           W    W  A    A  R    R  N    N  II  N    N   GGGG   !!!           |
|                                                                             |
|     Tetrahedron method does not include variations of the Fermi             |
|     occupations, so forces and stress will be inaccurate. We suggest        |
|     using a different smearing scheme ISMEAR = 1 or 2 for metals in         |
|     relaxations.                                                            |
|                                                                             |
 -----------------------------------------------------------------------------

       N       E                     dE             d eps       ncg     rms          rms(c)
DAV:   1    -0.793979677343E+03    0.66470E-03   -0.15459E-03  2764   0.135E-01    0.132E-01
RMM:   2    -0.793979879747E+03   -0.20240E-03   -0.20800E-03  3551   0.523E-02    0.188E-01
RMM:   3    -0.793980504879E+03   -0.62513E-03   -0.48843E-04  2992   0.318E-02    0.802E-02
RMM:   4    -0.793978641237E+03    0.18636E-02   -0.53913E-04  2974   0.271E-02    0.119E-01
RMM:   5    -0.793980464296E+03   -0.18231E-02   -0.82410E-05  2189   0.145E-02    0.765E-02
RMM:   6    -0.793979441631E+03    0.10227E-02   -0.14146E-04  2252   0.144E-02    0.899E-02
RMM:   7    -0.793980258533E+03   -0.81690E-03   -0.10694E-05  1674   0.612E-03    0.677E-02
RMM:   8    -0.793980550844E+03   -0.29231E-03   -0.32444E-05  2005   0.754E-03    0.594E-02
RMM:   9    -0.793980644184E+03   -0.93339E-04   -0.88442E-08   452   0.286E-03
   99 T=     4. E= -.79397105E+03 F= -.79398064E+03 E0= -.79398064E+03  EK= 0.59980E-01 SP= -.50E-01 SK= 0.11E-03
 bond charge predicted
 prediction of wavefunctions
 -----------------------------------------------------------------------------
|                                                                             |
|           W    W    AA    RRRRR   N    N  II  N    N   GGGG   !!!           |
|           W    W   A  A   R    R  NN   N  II  NN   N  G    G  !!!           |
|           W    W  A    A  R    R  N N  N  II  N N  N  G       !!!           |
|           W WW W  AAAAAA  RRRRR   N  N N  II  N  N N  G  GGG   !            |
|           WW  WW  A    A  R   R   N   NN  II  N   NN  G    G                |
|           W    W  A    A  R    R  N    N  II  N    N   GGGG   !!!           |
|                                                                             |
|     Tetrahedron method does not include variations of the Fermi             |
|     occupations, so forces and stress will be inaccurate. We suggest        |
|     using a different smearing scheme ISMEAR = 1 or 2 for metals in         |
|     relaxations.                                                            |
|                                                                             |
 -----------------------------------------------------------------------------

       N       E                     dE             d eps       ncg     rms          rms(c)
DAV:   1    -0.793980783239E+03   -0.23239E-03   -0.12160E-03  2570   0.762E-02    0.804E-02
RMM:   2    -0.793978958530E+03    0.18247E-02   -0.81393E-04  3124   0.329E-02    0.165E-01
RMM:   3    -0.793981156055E+03   -0.21975E-02   -0.26433E-04  2732   0.228E-02    0.736E-02
RMM:   4    -0.793980104709E+03    0.10513E-02   -0.15347E-04  2350   0.153E-02    0.747E-02
RMM:   5    -0.793980894349E+03   -0.78964E-03   -0.21383E-05  1842   0.749E-03    0.525E-02
RMM:   6    -0.793980758794E+03    0.13555E-03   -0.21967E-05  1735   0.641E-03    0.658E-02
RMM:   7    -0.793980799584E+03   -0.40790E-04   -0.21648E-06   768   0.390E-03
  100 T=     4. E= -.79397105E+03 F= -.79398080E+03 E0= -.79398080E+03  EK= 0.59718E-01 SP= -.50E-01 SK= 0.33E-04
Information: wavefunction orthogonal band  233  0.8980
 bond charge predicted
 prediction of wavefunctions
 wavefunctions rotated
 -----------------------------------------------------------------------------
|                                                                             |
|           W    W    AA    RRRRR   N    N  II  N    N   GGGG   !!!           |
|           W    W   A  A   R    R  NN   N  II  NN   N  G    G  !!!           |
|           W    W  A    A  R    R  N N  N  II  N N  N  G       !!!           |
|           W WW W  AAAAAA  RRRRR   N  N N  II  N  N N  G  GGG   !            |
|           WW  WW  A    A  R   R   N   NN  II  N   NN  G    G                |
|           W    W  A    A  R    R  N    N  II  N    N   GGGG   !!!           |
|                                                                             |
|     Tetrahedron method does not include variations of the Fermi             |
|     occupations, so forces and stress will be inaccurate. We suggest        |
|     using a different smearing scheme ISMEAR = 1 or 2 for metals in         |
|     relaxations.                                                            |
|                                                                             |
 -----------------------------------------------------------------------------

Warning: ieee_invalid is signaling
Warning: ieee_divide_by_zero is signaling
Warning: ieee_underflow is signaling
Warning: ieee_inexact is signaling
FORTRAN STOP
