<?xml version="1.0" encoding="ISO-8859-1"?>
<modeling>
 <generator>
  <i name="program" type="string">vasp </i>
  <i name="version" type="string">6.2.0  </i>
  <i name="subversion" type="string">18Jan21 (build Feb 25 2021 07:51:20) complex                          parallel </i>
  <i name="platform" type="string">LinuxPGI </i>
  <i name="date" type="string">2022 04 21 </i>
  <i name="time" type="string">12:36:56 </i>
 </generator>
 <incar>
  <i type="string" name="PREC">Accurate</i>
  <i type="string" name="ALGO">Fast</i>
  <i type="int" name="IBRION">     0</i>
  <i type="int" name="NSW">   100</i>
  <i type="int" name="ISYM">     0</i>
  <i name="ENCUT">    700.00000000</i>
  <i name="POTIM">      0.50000000</i>
  <i name="TEBEG">      5.00000000</i>
  <i name="TEEND">      5.00000000</i>
  <i name="SMASS">      0.00000000</i>
  <i type="string" name="LREAL">Auto</i>
  <i type="int" name="ISMEAR">    -5</i>
  <i name="SIGMA">      0.05000000</i>
  <i type="logical" name="LWAVE"> F  </i>
 </incar>
 <primitive_cell>
  <structure name="primitive_cell" >
   <crystal>
    <varray name="basis" >
     <v>       9.42496400       0.07257100       4.30697600 </v>
     <v>       2.79597900       9.00098600       4.30697700 </v>
     <v>       0.09774300       0.07257100      10.36197100 </v>
    </varray>
    <i name="volume">    871.11398866 </i>
    <varray name="rec_basis" >
     <v>       0.10670865      -0.03277513      -0.00077702 </v>
     <v>      -0.00050443       0.11162744      -0.00077703 </v>
     <v>      -0.04414402      -0.03277515       0.09715268 </v>
    </varray>
   </crystal>
   <varray name="positions" >
    <v>       0.16039500       0.40051500       0.40051500 </v>
    <v>       0.16039500       0.40051500       0.90051500 </v>
    <v>       0.16039500       0.90051500       0.40051500 </v>
    <v>       0.16039500       0.90051500       0.90051500 </v>
    <v>       0.66039500       0.40051500       0.40051500 </v>
    <v>       0.66039500       0.40051500       0.90051500 </v>
    <v>       0.66039500       0.90051500       0.40051500 </v>
    <v>       0.66039500       0.90051500       0.90051500 </v>
    <v>       0.40051500       0.40051500       0.16039500 </v>
    <v>       0.40051500       0.40051500       0.66039500 </v>
    <v>       0.40051500       0.90051500       0.16039500 </v>
    <v>       0.40051500       0.90051500       0.66039500 </v>
    <v>       0.90051500       0.40051500       0.16039500 </v>
    <v>       0.90051500       0.40051500       0.66039500 </v>
    <v>       0.90051500       0.90051500       0.16039500 </v>
    <v>       0.90051500       0.90051500       0.66039500 </v>
    <v>       0.40051500       0.16039500       0.40051500 </v>
    <v>       0.40051500       0.16039500       0.90051500 </v>
    <v>       0.40051500       0.66039500       0.40051500 </v>
    <v>       0.40051500       0.66039500       0.90051500 </v>
    <v>       0.90051500       0.16039500       0.40051500 </v>
    <v>       0.90051500       0.16039500       0.90051500 </v>
    <v>       0.90051500       0.66039500       0.40051500 </v>
    <v>       0.90051500       0.66039500       0.90051500 </v>
    <v>       0.33960500       0.09948500       0.09948500 </v>
    <v>       0.33960500       0.09948500       0.59948500 </v>
    <v>       0.33960500       0.59948500       0.09948500 </v>
    <v>       0.33960500       0.59948500       0.59948500 </v>
    <v>       0.83960500       0.09948500       0.09948500 </v>
    <v>       0.83960500       0.09948500       0.59948500 </v>
    <v>       0.83960500       0.59948500       0.09948500 </v>
    <v>       0.83960500       0.59948500       0.59948500 </v>
    <v>       0.09948500       0.09948500       0.33960500 </v>
    <v>       0.09948500       0.09948500       0.83960500 </v>
    <v>       0.09948500       0.59948500       0.33960500 </v>
    <v>       0.09948500       0.59948500       0.83960500 </v>
    <v>       0.59948500       0.09948500       0.33960500 </v>
    <v>       0.59948500       0.09948500       0.83960500 </v>
    <v>       0.59948500       0.59948500       0.33960500 </v>
    <v>       0.59948500       0.59948500       0.83960500 </v>
    <v>       0.09948500       0.33960500       0.09948500 </v>
    <v>       0.09948500       0.33960500       0.59948500 </v>
    <v>       0.09948500       0.83960500       0.09948500 </v>
    <v>       0.09948500       0.83960500       0.59948500 </v>
    <v>       0.59948500       0.33960500       0.09948500 </v>
    <v>       0.59948500       0.33960500       0.59948500 </v>
    <v>       0.59948500       0.83960500       0.09948500 </v>
    <v>       0.59948500       0.83960500       0.59948500 </v>
    <v>       0.33229300       0.00011500       0.00011500 </v>
    <v>       0.33229300       0.00011500       0.50011500 </v>
    <v>       0.33229300       0.50011500       0.00011500 </v>
    <v>       0.33229300       0.50011500       0.50011500 </v>
    <v>       0.83229300       0.00011500       0.00011500 </v>
    <v>       0.83229300       0.00011500       0.50011500 </v>
    <v>       0.83229300       0.50011500       0.00011500 </v>
    <v>       0.83229300       0.50011500       0.50011500 </v>
    <v>       0.00011500       0.00011500       0.33229300 </v>
    <v>       0.00011500       0.00011500       0.83229300 </v>
    <v>       0.00011500       0.50011500       0.33229300 </v>
    <v>       0.00011500       0.50011500       0.83229300 </v>
    <v>       0.50011500       0.00011500       0.33229300 </v>
    <v>       0.50011500       0.00011500       0.83229300 </v>
    <v>       0.50011500       0.50011500       0.33229300 </v>
    <v>       0.50011500       0.50011500       0.83229300 </v>
    <v>       0.00011500       0.33229300       0.00011500 </v>
    <v>       0.00011500       0.33229300       0.50011500 </v>
    <v>       0.00011500       0.83229300       0.00011500 </v>
    <v>       0.00011500       0.83229300       0.50011500 </v>
    <v>       0.50011500       0.33229300       0.00011500 </v>
    <v>       0.50011500       0.33229300       0.50011500 </v>
    <v>       0.50011500       0.83229300       0.00011500 </v>
    <v>       0.50011500       0.83229300       0.50011500 </v>
    <v>       0.16770700       0.99988500       0.99988500 </v>
    <v>       0.16770700       0.99988500       0.49988500 </v>
    <v>       0.16770700       0.49988500       0.99988500 </v>
    <v>       0.16770700       0.49988500       0.49988500 </v>
    <v>       0.66770700       0.99988500       0.99988500 </v>
    <v>       0.66770700       0.99988500       0.49988500 </v>
    <v>       0.66770700       0.49988500       0.99988500 </v>
    <v>       0.66770700       0.49988500       0.49988500 </v>
    <v>       0.99988500       0.99988500       0.16770700 </v>
    <v>       0.99988500       0.99988500       0.66770700 </v>
    <v>       0.99988500       0.49988500       0.16770700 </v>
    <v>       0.99988500       0.49988500       0.66770700 </v>
    <v>       0.49988500       0.99988500       0.16770700 </v>
    <v>       0.49988500       0.99988500       0.66770700 </v>
    <v>       0.49988500       0.49988500       0.16770700 </v>
    <v>       0.49988500       0.49988500       0.66770700 </v>
    <v>       0.99988500       0.16770700       0.99988500 </v>
    <v>       0.99988500       0.16770700       0.49988500 </v>
    <v>       0.99988500       0.66770700       0.99988500 </v>
    <v>       0.99988500       0.66770700       0.49988500 </v>
    <v>       0.49988500       0.16770700       0.99988500 </v>
    <v>       0.49988500       0.16770700       0.49988500 </v>
    <v>       0.49988500       0.66770700       0.99988500 </v>
    <v>       0.49988500       0.66770700       0.49988500 </v>
    <v>       0.31539700       0.31539700       0.31539700 </v>
    <v>       0.31539700       0.31539700       0.81539700 </v>
    <v>       0.31539700       0.81539700       0.31539700 </v>
    <v>       0.31539700       0.81539700       0.81539700 </v>
    <v>       0.81539700       0.31539700       0.31539700 </v>
    <v>       0.81539700       0.31539700       0.81539700 </v>
    <v>       0.81539700       0.81539700       0.31539700 </v>
    <v>       0.81539700       0.81539700       0.81539700 </v>
    <v>       0.18460300       0.18460300       0.18460300 </v>
    <v>       0.18460300       0.18460300       0.68460300 </v>
    <v>       0.18460300       0.68460300       0.18460300 </v>
    <v>       0.18460300       0.68460300       0.68460300 </v>
    <v>       0.68460300       0.18460300       0.18460300 </v>
    <v>       0.68460300       0.18460300       0.68460300 </v>
    <v>       0.68460300       0.68460300       0.18460300 </v>
    <v>       0.68460300       0.68460300       0.68460300 </v>
   </varray>
  </structure>
  <varray name="primitive_index" >
   <v type="int" >        1 </v>
   <v type="int" >        2 </v>
   <v type="int" >        3 </v>
   <v type="int" >        4 </v>
   <v type="int" >        5 </v>
   <v type="int" >        6 </v>
   <v type="int" >        7 </v>
   <v type="int" >        8 </v>
   <v type="int" >        9 </v>
   <v type="int" >       10 </v>
   <v type="int" >       11 </v>
   <v type="int" >       12 </v>
   <v type="int" >       13 </v>
   <v type="int" >       14 </v>
   <v type="int" >       15 </v>
   <v type="int" >       16 </v>
   <v type="int" >       17 </v>
   <v type="int" >       18 </v>
   <v type="int" >       19 </v>
   <v type="int" >       20 </v>
   <v type="int" >       21 </v>
   <v type="int" >       22 </v>
   <v type="int" >       23 </v>
   <v type="int" >       24 </v>
   <v type="int" >       25 </v>
   <v type="int" >       26 </v>
   <v type="int" >       27 </v>
   <v type="int" >       28 </v>
   <v type="int" >       29 </v>
   <v type="int" >       30 </v>
   <v type="int" >       31 </v>
   <v type="int" >       32 </v>
   <v type="int" >       33 </v>
   <v type="int" >       34 </v>
   <v type="int" >       35 </v>
   <v type="int" >       36 </v>
   <v type="int" >       37 </v>
   <v type="int" >       38 </v>
   <v type="int" >       39 </v>
   <v type="int" >       40 </v>
   <v type="int" >       41 </v>
   <v type="int" >       42 </v>
   <v type="int" >       43 </v>
   <v type="int" >       44 </v>
   <v type="int" >       45 </v>
   <v type="int" >       46 </v>
   <v type="int" >       47 </v>
   <v type="int" >       48 </v>
   <v type="int" >       49 </v>
   <v type="int" >       50 </v>
   <v type="int" >       51 </v>
   <v type="int" >       52 </v>
   <v type="int" >       53 </v>
   <v type="int" >       54 </v>
   <v type="int" >       55 </v>
   <v type="int" >       56 </v>
   <v type="int" >       57 </v>
   <v type="int" >       58 </v>
   <v type="int" >       59 </v>
   <v type="int" >       60 </v>
   <v type="int" >       61 </v>
   <v type="int" >       62 </v>
   <v type="int" >       63 </v>
   <v type="int" >       64 </v>
   <v type="int" >       65 </v>
   <v type="int" >       66 </v>
   <v type="int" >       67 </v>
   <v type="int" >       68 </v>
   <v type="int" >       69 </v>
   <v type="int" >       70 </v>
   <v type="int" >       71 </v>
   <v type="int" >       72 </v>
   <v type="int" >       73 </v>
   <v type="int" >       74 </v>
   <v type="int" >       75 </v>
   <v type="int" >       76 </v>
   <v type="int" >       77 </v>
   <v type="int" >       78 </v>
   <v type="int" >       79 </v>
   <v type="int" >       80 </v>
   <v type="int" >       81 </v>
   <v type="int" >       82 </v>
   <v type="int" >       83 </v>
   <v type="int" >       84 </v>
   <v type="int" >       85 </v>
   <v type="int" >       86 </v>
   <v type="int" >       87 </v>
   <v type="int" >       88 </v>
   <v type="int" >       89 </v>
   <v type="int" >       90 </v>
   <v type="int" >       91 </v>
   <v type="int" >       92 </v>
   <v type="int" >       93 </v>
   <v type="int" >       94 </v>
   <v type="int" >       95 </v>
   <v type="int" >       96 </v>
   <v type="int" >       97 </v>
   <v type="int" >       98 </v>
   <v type="int" >       99 </v>
   <v type="int" >      100 </v>
   <v type="int" >      101 </v>
   <v type="int" >      102 </v>
   <v type="int" >      103 </v>
   <v type="int" >      104 </v>
   <v type="int" >      105 </v>
   <v type="int" >      106 </v>
   <v type="int" >      107 </v>
   <v type="int" >      108 </v>
   <v type="int" >      109 </v>
   <v type="int" >      110 </v>
   <v type="int" >      111 </v>
   <v type="int" >      112 </v>
  </varray>
 </primitive_cell>
 <kpoints>
  <generation param="Gamma">
   <v type="int" name="divisions">       2        2        2 </v>
   <v name="usershift">      0.00000000       0.00000000       0.00000000 </v>
   <v name="genvec1">      0.50000000       0.00000000       0.00000000 </v>
   <v name="genvec2">     -0.00000000       0.50000000       0.00000000 </v>
   <v name="genvec3">      0.00000000      -0.00000000       0.50000000 </v>
   <v name="shift">      0.00000000       0.00000000       0.00000000 </v>
  </generation>
  <varray name="kpointlist" >
   <v>       0.00000000       0.00000000       0.00000000 </v>
   <v>       0.50000000       0.00000000       0.00000000 </v>
   <v>       0.00000000       0.50000000       0.00000000 </v>
   <v>       0.00000000       0.00000000       0.50000000 </v>
   <v>       0.50000000       0.50000000       0.00000000 </v>
   <v>       0.50000000       0.00000000       0.50000000 </v>
   <v>       0.00000000       0.50000000       0.50000000 </v>
   <v>       0.50000000       0.50000000       0.50000000 </v>
  </varray>
  <varray name="weights" >
   <v>       0.12500000 </v>
   <v>       0.12500000 </v>
   <v>       0.12500000 </v>
   <v>       0.12500000 </v>
   <v>       0.12500000 </v>
   <v>       0.12500000 </v>
   <v>       0.12500000 </v>
   <v>       0.12500000 </v>
  </varray>
  <varray name="tetrahedronlist"  type="int" >
   <v type="int" >        2        1        3        5        8 </v>
   <v type="int" >        2        1        2        5        8 </v>
   <v type="int" >        2        1        2        6        8 </v>
   <v type="int" >        2        1        3        7        8 </v>
   <v type="int" >        2        1        4        7        8 </v>
   <v type="int" >        2        1        4        6        8 </v>
   <v type="int" >        2        2        3        5        7 </v>
   <v type="int" >        2        1        2        3        7 </v>
   <v type="int" >        2        1        2        4        7 </v>
   <v type="int" >        2        2        5        7        8 </v>
   <v type="int" >        2        2        6        7        8 </v>
   <v type="int" >        2        2        4        6        7 </v>
   <v type="int" >        2        1        2        3        6 </v>
   <v type="int" >        2        2        3        5        6 </v>
   <v type="int" >        2        3        5        6        8 </v>
   <v type="int" >        2        1        3        4        6 </v>
   <v type="int" >        2        3        4        6        7 </v>
   <v type="int" >        2        3        6        7        8 </v>
   <v type="int" >        2        1        2        4        5 </v>
   <v type="int" >        2        1        3        4        5 </v>
   <v type="int" >        2        3        4        5        7 </v>
   <v type="int" >        2        2        4        5        6 </v>
   <v type="int" >        2        4        5        6        8 </v>
   <v type="int" >        2        4        5        7        8 </v>
  </varray>
  <i name="volumeweight">      0.02083333 </i>
 </kpoints>
 <parameters>
  <separator name="general" >
   <i type="string" name="SYSTEM">unknown system</i>
   <i type="logical" name="LCOMPAT"> F  </i>
  </separator>
  <separator name="electronic" >
   <i type="string" name="PREC">accura</i>
   <i name="ENMAX">    700.00000000</i>
   <i name="ENAUG">    644.87300000</i>
   <i name="EDIFF">      0.00010000</i>
   <i type="int" name="IALGO">    68</i>
   <i type="int" name="IWAVPR">    12</i>
   <i type="int" name="NBANDS">   233</i>
   <i type="int" name="NBANDSLOW">    -1</i>
   <i type="int" name="NBANDSHIGH">    -1</i>
   <i name="NELECT">    352.00000000</i>
   <i type="int" name="TURBO">     0</i>
   <i type="int" name="IRESTART">     0</i>
   <i type="int" name="NREBOOT">     0</i>
   <i type="int" name="NMIN">     0</i>
   <i name="EREF">      0.00000000</i>
   <separator name="electronic smearing" >
    <i type="int" name="ISMEAR">    -5</i>
    <i name="SIGMA">      0.05000000</i>
    <i name="KSPACING">      0.50000000</i>
    <i type="logical" name="KGAMMA"> T  </i>
    <i type="logical" name="KBLOWUP"> T  </i>
   </separator>
   <separator name="electronic projectors" >
    <i type="logical" name="LREAL"> T  </i>
    <v name="ROPT">     -0.00025000     -0.00025000</v>
    <i type="int" name="LMAXPAW">  -100</i>
    <i type="int" name="LMAXMIX">     2</i>
    <i type="logical" name="NLSPLINE"> F  </i>
   </separator>
   <separator name="electronic startup" >
    <i type="int" name="ISTART">     0</i>
    <i type="int" name="ICHARG">     2</i>
    <i type="int" name="INIWAV">     1</i>
   </separator>
   <separator name="electronic spin" >
    <i type="int" name="ISPIN">     1</i>
    <i type="logical" name="LNONCOLLINEAR"> F  </i>
    <v name="MAGMOM">      1.00000000      1.00000000      1.00000000      1.00000000      1.00000000      1.00000000      1.00000000      1.00000000      1.00000000      1.00000000      1.00000000      1.00000000      1.00000000      1.00000000      1.00000000      1.00000000      1.00000000      1.00000000      1.00000000      1.00000000
      1.00000000      1.00000000      1.00000000      1.00000000      1.00000000      1.00000000      1.00000000      1.00000000      1.00000000      1.00000000      1.00000000      1.00000000      1.00000000      1.00000000      1.00000000      1.00000000      1.00000000      1.00000000      1.00000000      1.00000000
      1.00000000      1.00000000      1.00000000      1.00000000      1.00000000      1.00000000      1.00000000      1.00000000      1.00000000      1.00000000      1.00000000      1.00000000      1.00000000      1.00000000      1.00000000      1.00000000      1.00000000      1.00000000      1.00000000      1.00000000
      1.00000000      1.00000000      1.00000000      1.00000000      1.00000000      1.00000000      1.00000000      1.00000000      1.00000000      1.00000000      1.00000000      1.00000000      1.00000000      1.00000000      1.00000000      1.00000000      1.00000000      1.00000000      1.00000000      1.00000000
      1.00000000      1.00000000      1.00000000      1.00000000      1.00000000      1.00000000      1.00000000      1.00000000      1.00000000      1.00000000      1.00000000      1.00000000      1.00000000      1.00000000      1.00000000      1.00000000      1.00000000      1.00000000      1.00000000      1.00000000
      1.00000000      1.00000000      1.00000000      1.00000000      1.00000000      1.00000000      1.00000000      1.00000000      1.00000000      1.00000000      1.00000000      1.00000000</v>
    <i name="NUPDOWN">     -1.00000000</i>
    <i type="logical" name="LSORBIT"> F  </i>
    <v name="SAXIS">      0.00000000      0.00000000      1.00000000</v>
    <i type="logical" name="LSPIRAL"> F  </i>
    <v name="QSPIRAL">      0.00000000      0.00000000      0.00000000</v>
    <i type="logical" name="LZEROZ"> F  </i>
   </separator>
   <separator name="electronic exchange-correlation" >
    <i type="logical" name="LASPH"> F  </i>
    <i type="logical" name="LMETAGGA"> F  </i>
   </separator>
   <separator name="electronic convergence" >
    <i type="int" name="NELM">    60</i>
    <i type="int" name="NELMDL">     0</i>
    <i type="int" name="NELMIN">     2</i>
    <i name="ENINI">    700.00000000</i>
    <separator name="electronic convergence detail" >
     <i type="logical" name="LDIAG"> T  </i>
     <i type="logical" name="LSUBROT"> F  </i>
     <i name="WEIMIN">      0.00100000</i>
     <i name="EBREAK">      0.00000011</i>
     <i name="DEPER">      0.30000000</i>
     <i type="int" name="NRMM">     4</i>
     <i name="TIME">      0.40000000</i>
    </separator>
   </separator>
   <separator name="electronic mixer" >
    <i name="AMIX">      0.40000000</i>
    <i name="BMIX">      1.00000000</i>
    <i name="AMIN">      0.10000000</i>
    <i name="AMIX_MAG">      1.60000000</i>
    <i name="BMIX_MAG">      1.00000000</i>
    <separator name="electronic mixer details" >
     <i type="int" name="IMIX">     4</i>
     <i type="logical" name="MIXFIRST"> F  </i>
     <i type="int" name="MAXMIX">   -45</i>
     <i name="WC">    100.00000000</i>
     <i type="int" name="INIMIX">     1</i>
     <i type="int" name="MIXPRE">     1</i>
     <i type="int" name="MREMOVE">     5</i>
    </separator>
   </separator>
   <separator name="electronic dipolcorrection" >
    <i type="logical" name="LDIPOL"> F  </i>
    <i type="logical" name="LMONO"> F  </i>
    <i type="int" name="IDIPOL">     0</i>
    <i name="EPSILON">      1.00000000</i>
    <v name="DIPOL">   -100.00000000   -100.00000000   -100.00000000</v>
    <i name="EFIELD">      0.00000000</i>
   </separator>
  </separator>
  <separator name="grids" >
   <i type="int" name="NGX">    90</i>
   <i type="int" name="NGY">    90</i>
   <i type="int" name="NGZ">    90</i>
   <i type="int" name="NGXF">   180</i>
   <i type="int" name="NGYF">   180</i>
   <i type="int" name="NGZF">   180</i>
   <i type="logical" name="ADDGRID"> F  </i>
  </separator>
  <separator name="ionic" >
   <i type="int" name="NSW">   100</i>
   <i type="int" name="IBRION">     0</i>
   <i type="int" name="MDALGO">     0</i>
   <i type="int" name="ISIF">     0</i>
   <i name="PSTRESS">      0.00000000</i>
   <i name="EDIFFG">      0.00100000</i>
   <i type="int" name="NFREE">     0</i>
   <i name="POTIM">      0.50000000</i>
   <i name="SMASS">      0.00026124</i>
   <i name="SCALEE">      1.00000000</i>
  </separator>
  <separator name="ionic md" >
   <i name="TEBEG">      5.00000000</i>
   <i name="TEEND">      5.00000000</i>
   <i type="int" name="NBLOCK">     1</i>
   <i type="int" name="KBLOCK">   100</i>
   <i type="int" name="NPACO">   256</i>
   <i name="APACO">     16.00000000</i>
  </separator>
  <separator name="symmetry" >
   <i type="int" name="ISYM">     0</i>
   <i name="SYMPREC">      0.00001000</i>
  </separator>
  <separator name="dos" >
   <i type="int" name="LORBIT">     0</i>
   <v name="RWIGS">     -1.00000000     -1.00000000</v>
   <i type="int" name="NEDOS">   301</i>
   <i name="EMIN">     10.00000000</i>
   <i name="EMAX">    -10.00000000</i>
   <i name="EFERMI">      0.00000000</i>
  </separator>
  <separator name="writing" >
   <i type="int" name="NWRITE">     2</i>
   <i type="logical" name="LWAVE"> F  </i>
   <i type="logical" name="LDOWNSAMPLE"> F  </i>
   <i type="logical" name="LCHARG"> T  </i>
   <i type="logical" name="LPARD"> F  </i>
   <i type="logical" name="LVTOT"> F  </i>
   <i type="logical" name="LVHAR"> F  </i>
   <i type="logical" name="LELF"> F  </i>
   <i type="logical" name="LOPTICS"> F  </i>
   <v name="STM">      0.00000000      0.00000000      0.00000000      0.00000000      0.00000000      0.00000000      0.00000000</v>
  </separator>
  <separator name="performance" >
   <i type="int" name="NPAR">     1</i>
   <i type="int" name="NSIM">     4</i>
   <i type="int" name="NBLK">    -1</i>
   <i type="logical" name="LPLANE"> T  </i>
   <i type="logical" name="LSCALAPACK"> T  </i>
   <i type="logical" name="LSCAAWARE"> F  </i>
   <i type="logical" name="LSCALU"> F  </i>
   <i type="logical" name="LASYNC"> F  </i>
   <i type="logical" name="LORBITALREAL"> F  </i>
  </separator>
  <separator name="miscellaneous" >
   <i type="int" name="IDIOT">     3</i>
   <i type="int" name="PHON_NSTRUCT">    -1</i>
   <i type="logical" name="LMUSIC"> F  </i>
   <v name="POMASS">     10.81100000     12.01100000</v>
   <v name="DARWINR">      0.00000000      0.00000000</v>
   <v name="DARWINV">      1.00000000      1.00000000</v>
   <i type="logical" name="LCORR"> T  </i>
  </separator>
  <i type="logical" name="GGA_COMPAT"> T  </i>
  <i type="logical" name="LBERRY"> F  </i>
  <i type="int" name="ICORELEVEL">     0</i>
  <i type="logical" name="LDAU"> F  </i>
  <i type="int" name="I_CONSTRAINED_M">     0</i>
  <separator name="electronic exchange-correlation" >
   <i type="string" name="GGA">--</i>
   <i type="int" name="VOSKOWN">     0</i>
   <i type="logical" name="LHFCALC"> F  </i>
   <i type="string" name="PRECFOCK"></i>
   <i type="logical" name="LSYMGRAD"> F  </i>
   <i type="logical" name="LHFONE"> F  </i>
   <i type="logical" name="LRHFCALC"> F  </i>
   <i type="logical" name="LTHOMAS"> F  </i>
   <i type="logical" name="LMODELHF"> F  </i>
   <i type="logical" name="LFOCKACE"> F  </i>
   <i name="ENCUT4O">     -1.00000000</i>
   <i type="int" name="EXXOEP">     0</i>
   <i type="int" name="FOURORBIT">     0</i>
   <i name="AEXX">      0.00000000</i>
   <i name="HFALPHA">      0.00000000</i>
   <i name="MCALPHA">      0.00000000</i>
   <i name="ALDAX">      1.00000000</i>
   <i name="AGGAX">      1.00000000</i>
   <i name="ALDAC">      1.00000000</i>
   <i name="AGGAC">      1.00000000</i>
   <i type="int" name="NKREDX">     1</i>
   <i type="int" name="NKREDY">     1</i>
   <i type="int" name="NKREDZ">     1</i>
   <i type="logical" name="SHIFTRED"> F  </i>
   <i type="logical" name="ODDONLY"> F  </i>
   <i type="logical" name="EVENONLY"> F  </i>
   <i type="int" name="LMAXFOCK">     0</i>
   <i type="int" name="NMAXFOCKAE">     0</i>
   <i type="logical" name="LFOCKAEDFT"> F  </i>
   <i name="HFSCREEN">      0.00000000</i>
   <i name="HFSCREENC">      0.00000000</i>
   <i type="int" name="NBANDSGWLOW">     0</i>
  </separator>
  <separator name="vdW DFT" >
   <i type="logical" name="LUSE_VDW"> F  </i>
   <i name="Zab_VDW">     -0.84910000</i>
   <i name="PARAM1">      0.12340000</i>
   <i name="PARAM2">      1.00000000</i>
   <i name="PARAM3">      0.00000000</i>
  </separator>
  <separator name="model GW" >
   <i type="int" name="MODEL_GW">     0</i>
   <i name="MODEL_EPS0">      4.66668208</i>
   <i name="MODEL_ALPHA">      1.00000000</i>
  </separator>
  <separator name="linear response parameters" >
   <i type="logical" name="LEPSILON"> F  </i>
   <i type="logical" name="LRPA"> F  </i>
   <i type="logical" name="LNABLA"> F  </i>
   <i type="logical" name="LVEL"> F  </i>
   <i type="int" name="KINTER">     0</i>
   <i name="CSHIFT">      0.10000000</i>
   <i name="OMEGAMAX">     -1.00000000</i>
   <i name="DEG_THRESHOLD">      0.00200000</i>
   <i name="RTIME">     -0.10000000</i>
   <i name="WPLASMAI">      0.00000000</i>
   <v name="DFIELD">      0.00000000      0.00000000      0.00000000</v>
   <v name="WPLASMA">      0.00000000      0.00000000      0.00000000      0.00000000      0.00000000      0.00000000      0.00000000      0.00000000      0.00000000</v>
  </separator>
  <separator name="orbital magnetization" >
   <i type="logical" name="NUCIND"> F  </i>
   <v name="MAGPOS">      0.00000000      0.00000000      0.00000000</v>
   <i type="logical" name="LNICSALL"> T  </i>
   <i type="logical" name="ORBITALMAG"> F  </i>
   <i type="logical" name="LMAGBLOCH"> F  </i>
   <i type="logical" name="LCHIMAG"> F  </i>
   <i type="logical" name="LGAUGE"> T  </i>
   <i type="int" name="MAGATOM">     0</i>
   <v name="MAGDIPOL">      0.00000000      0.00000000      0.00000000</v>
   <v name="AVECCONST">      0.00000000      0.00000000      0.00000000</v>
  </separator>
  <separator name="response functions" >
   <i type="logical" name="LFINITE_TEMPERATURE"> F  </i>
   <i type="logical" name="LADDER"> F  </i>
   <i type="logical" name="LRPAFORCE"> F  </i>
   <i type="logical" name="LFXC"> F  </i>
   <i type="logical" name="LHARTREE"> T  </i>
   <i type="int" name="IBSE">     0</i>
   <v type="int" name="KPOINT">    -1     0     0     0</v>
   <i type="logical" name="LTCTC"> F  </i>
   <i type="logical" name="LTCTE"> F  </i>
   <i type="logical" name="LTETE"> F  </i>
   <i type="logical" name="LTRIPLET"> F  </i>
   <i type="logical" name="LFXCEPS"> F  </i>
   <i type="logical" name="LFXHEG"> F  </i>
   <i type="int" name="NATURALO">     2</i>
   <i type="logical" name="LHOLEGF"> F  </i>
   <i type="logical" name="L2ORDER"> F  </i>
   <i type="logical" name="LDMP1"> F  </i>
   <i type="logical" name="LMP2LT"> F  </i>
   <i type="logical" name="LSMP2LT"> F  </i>
   <i type="logical" name="LGWLF"> F  </i>
   <i name="ENCUTGW">     -2.00000000</i>
   <i name="ENCUTGWSOFT">     -2.00000000</i>
   <i name="ENCUTLF">     -1.00000000</i>
   <i type="logical" name="LESF_SPLINES"> F  </i>
   <i type="int" name="LMAXMP2">    -1</i>
   <i name="SCISSOR">      0.00000000</i>
   <i type="int" name="NOMEGA">     0</i>
   <i type="int" name="NOMEGAR">     0</i>
   <i type="int" name="NBANDSGW">    -1</i>
   <i type="int" name="NBANDSO">    -1</i>
   <i type="int" name="NBANDSV">    -1</i>
   <i type="int" name="NELM">     1</i>
   <i type="int" name="NELMHF">     1</i>
   <i type="int" name="DIM">     3</i>
   <i type="int" name="IESPILON">     4</i>
   <i type="int" name="ANTIRES">     0</i>
   <i name="OMEGAMAX">    -30.00000000</i>
   <i name="OMEGAMIN">    -30.00000000</i>
   <i name="OMEGATL">   -200.00000000</i>
   <i type="int" name="OMEGAGRID">     0</i>
   <i name="CSHIFT">     -0.10000000</i>
   <i type="logical" name="LSELFENERGY"> F  </i>
   <i type="logical" name="LSPECTRAL"> F  </i>
   <i type="logical" name="LSPECTRALGW"> F  </i>
   <i type="logical" name="LSINGLES"> F  </i>
   <i type="logical" name="LFERMIGW"> F  </i>
   <i type="logical" name="ODDONLYGW"> F  </i>
   <i type="logical" name="EVENONLYGW"> F  </i>
   <i type="int" name="NKREDLFX">     1</i>
   <i type="int" name="NKREDLFY">     1</i>
   <i type="int" name="NKREDLFZ">     1</i>
   <i type="int" name="MAXMEM">  2800</i>
   <i type="int" name="TELESCOPE">     0</i>
   <i type="int" name="NTAUPAR">    -1</i>
   <i type="int" name="NOMEGAPAR">    -1</i>
   <i name="DAMP_NEWTON">      0.80000001</i>
   <i name="LAMBDA">      1.00000000</i>
  </separator>
  <separator name="External order field" >
   <i name="OFIELD_KAPPA">      0.00000000</i>
   <v name="OFIELD_K">      0.00000000      0.00000000      0.00000000</v>
   <i name="OFIELD_Q6_NEAR">      0.00000000</i>
   <i name="OFIELD_Q6_FAR">      0.00000000</i>
   <i name="OFIELD_A">      0.00000000</i>
  </separator>
 </parameters>
 <atominfo>
  <atoms>     112 </atoms>
  <types>       2 </types>
  <array name="atoms" >
   <dimension dim="1">ion</dimension>
   <field type="string">element</field>
   <field type="int">atomtype</field>
   <set>
    <rc><c>B </c><c>   1</c></rc>
    <rc><c>B </c><c>   1</c></rc>
    <rc><c>B </c><c>   1</c></rc>
    <rc><c>B </c><c>   1</c></rc>
    <rc><c>B </c><c>   1</c></rc>
    <rc><c>B </c><c>   1</c></rc>
    <rc><c>B </c><c>   1</c></rc>
    <rc><c>B </c><c>   1</c></rc>
    <rc><c>B </c><c>   1</c></rc>
    <rc><c>B </c><c>   1</c></rc>
    <rc><c>B </c><c>   1</c></rc>
    <rc><c>B </c><c>   1</c></rc>
    <rc><c>B </c><c>   1</c></rc>
    <rc><c>B </c><c>   1</c></rc>
    <rc><c>B </c><c>   1</c></rc>
    <rc><c>B </c><c>   1</c></rc>
    <rc><c>B </c><c>   1</c></rc>
    <rc><c>B </c><c>   1</c></rc>
    <rc><c>B </c><c>   1</c></rc>
    <rc><c>B </c><c>   1</c></rc>
    <rc><c>B </c><c>   1</c></rc>
    <rc><c>B </c><c>   1</c></rc>
    <rc><c>B </c><c>   1</c></rc>
    <rc><c>B </c><c>   1</c></rc>
    <rc><c>B </c><c>   1</c></rc>
    <rc><c>B </c><c>   1</c></rc>
    <rc><c>B </c><c>   1</c></rc>
    <rc><c>B </c><c>   1</c></rc>
    <rc><c>B </c><c>   1</c></rc>
    <rc><c>B </c><c>   1</c></rc>
    <rc><c>B </c><c>   1</c></rc>
    <rc><c>B </c><c>   1</c></rc>
    <rc><c>B </c><c>   1</c></rc>
    <rc><c>B </c><c>   1</c></rc>
    <rc><c>B </c><c>   1</c></rc>
    <rc><c>B </c><c>   1</c></rc>
    <rc><c>B </c><c>   1</c></rc>
    <rc><c>B </c><c>   1</c></rc>
    <rc><c>B </c><c>   1</c></rc>
    <rc><c>B </c><c>   1</c></rc>
    <rc><c>B </c><c>   1</c></rc>
    <rc><c>B </c><c>   1</c></rc>
    <rc><c>B </c><c>   1</c></rc>
    <rc><c>B </c><c>   1</c></rc>
    <rc><c>B </c><c>   1</c></rc>
    <rc><c>B </c><c>   1</c></rc>
    <rc><c>B </c><c>   1</c></rc>
    <rc><c>B </c><c>   1</c></rc>
    <rc><c>B </c><c>   1</c></rc>
    <rc><c>B </c><c>   1</c></rc>
    <rc><c>B </c><c>   1</c></rc>
    <rc><c>B </c><c>   1</c></rc>
    <rc><c>B </c><c>   1</c></rc>
    <rc><c>B </c><c>   1</c></rc>
    <rc><c>B </c><c>   1</c></rc>
    <rc><c>B </c><c>   1</c></rc>
    <rc><c>B </c><c>   1</c></rc>
    <rc><c>B </c><c>   1</c></rc>
    <rc><c>B </c><c>   1</c></rc>
    <rc><c>B </c><c>   1</c></rc>
    <rc><c>B </c><c>   1</c></rc>
    <rc><c>B </c><c>   1</c></rc>
    <rc><c>B </c><c>   1</c></rc>
    <rc><c>B </c><c>   1</c></rc>
    <rc><c>B </c><c>   1</c></rc>
    <rc><c>B </c><c>   1</c></rc>
    <rc><c>B </c><c>   1</c></rc>
    <rc><c>B </c><c>   1</c></rc>
    <rc><c>B </c><c>   1</c></rc>
    <rc><c>B </c><c>   1</c></rc>
    <rc><c>B </c><c>   1</c></rc>
    <rc><c>B </c><c>   1</c></rc>
    <rc><c>B </c><c>   1</c></rc>
    <rc><c>B </c><c>   1</c></rc>
    <rc><c>B </c><c>   1</c></rc>
    <rc><c>B </c><c>   1</c></rc>
    <rc><c>B </c><c>   1</c></rc>
    <rc><c>B </c><c>   1</c></rc>
    <rc><c>B </c><c>   1</c></rc>
    <rc><c>B </c><c>   1</c></rc>
    <rc><c>B </c><c>   1</c></rc>
    <rc><c>B </c><c>   1</c></rc>
    <rc><c>B </c><c>   1</c></rc>
    <rc><c>B </c><c>   1</c></rc>
    <rc><c>B </c><c>   1</c></rc>
    <rc><c>B </c><c>   1</c></rc>
    <rc><c>B </c><c>   1</c></rc>
    <rc><c>B </c><c>   1</c></rc>
    <rc><c>B </c><c>   1</c></rc>
    <rc><c>B </c><c>   1</c></rc>
    <rc><c>B </c><c>   1</c></rc>
    <rc><c>B </c><c>   1</c></rc>
    <rc><c>B </c><c>   1</c></rc>
    <rc><c>B </c><c>   1</c></rc>
    <rc><c>B </c><c>   1</c></rc>
    <rc><c>B </c><c>   1</c></rc>
    <rc><c>C </c><c>   2</c></rc>
    <rc><c>C </c><c>   2</c></rc>
    <rc><c>C </c><c>   2</c></rc>
    <rc><c>C </c><c>   2</c></rc>
    <rc><c>C </c><c>   2</c></rc>
    <rc><c>C </c><c>   2</c></rc>
    <rc><c>C </c><c>   2</c></rc>
    <rc><c>C </c><c>   2</c></rc>
    <rc><c>C </c><c>   2</c></rc>
    <rc><c>C </c><c>   2</c></rc>
    <rc><c>C </c><c>   2</c></rc>
    <rc><c>C </c><c>   2</c></rc>
    <rc><c>C </c><c>   2</c></rc>
    <rc><c>C </c><c>   2</c></rc>
    <rc><c>C </c><c>   2</c></rc>
    <rc><c>C </c><c>   2</c></rc>
   </set>
  </array>
  <array name="atomtypes" >
   <dimension dim="1">type</dimension>
   <field type="int">atomspertype</field>
   <field type="string">element</field>
   <field>mass</field>
   <field>valence</field>
   <field type="string">pseudopotential</field>
   <set>
    <rc><c>  96</c><c>B </c><c>     10.81100000</c><c>      3.00000000</c><c>  PAW_PBE B 06Sep2000                   </c></rc>
    <rc><c>  16</c><c>C </c><c>     12.01100000</c><c>      4.00000000</c><c>  PAW_PBE C 08Apr2002                   </c></rc>
   </set>
  </array>
 </atominfo>
 <structure name="initialpos" >
  <crystal>
   <varray name="basis" >
    <v>       9.42496400       0.07257100       4.30697600 </v>
    <v>       2.79597900       9.00098600       4.30697700 </v>
    <v>       0.09774300       0.07257100      10.36197100 </v>
   </varray>
   <i name="volume">    871.11398866 </i>
   <varray name="rec_basis" >
    <v>       0.10670865      -0.03277513      -0.00077702 </v>
    <v>      -0.00050443       0.11162744      -0.00077703 </v>
    <v>      -0.04414402      -0.03277515       0.09715268 </v>
   </varray>
  </crystal>
  <varray name="positions" >
   <v>       0.16039500       0.40051500       0.40051500 </v>
   <v>       0.16039500       0.40051500       0.90051500 </v>
   <v>       0.16039500       0.90051500       0.40051500 </v>
   <v>       0.16039500       0.90051500       0.90051500 </v>
   <v>       0.66039500       0.40051500       0.40051500 </v>
   <v>       0.66039500       0.40051500       0.90051500 </v>
   <v>       0.66039500       0.90051500       0.40051500 </v>
   <v>       0.66039500       0.90051500       0.90051500 </v>
   <v>       0.40051500       0.40051500       0.16039500 </v>
   <v>       0.40051500       0.40051500       0.66039500 </v>
   <v>       0.40051500       0.90051500       0.16039500 </v>
   <v>       0.40051500       0.90051500       0.66039500 </v>
   <v>       0.90051500       0.40051500       0.16039500 </v>
   <v>       0.90051500       0.40051500       0.66039500 </v>
   <v>       0.90051500       0.90051500       0.16039500 </v>
   <v>       0.90051500       0.90051500       0.66039500 </v>
   <v>       0.40051500       0.16039500       0.40051500 </v>
   <v>       0.40051500       0.16039500       0.90051500 </v>
   <v>       0.40051500       0.66039500       0.40051500 </v>
   <v>       0.40051500       0.66039500       0.90051500 </v>
   <v>       0.90051500       0.16039500       0.40051500 </v>
   <v>       0.90051500       0.16039500       0.90051500 </v>
   <v>       0.90051500       0.66039500       0.40051500 </v>
   <v>       0.90051500       0.66039500       0.90051500 </v>
   <v>       0.33960500       0.09948500       0.09948500 </v>
   <v>       0.33960500       0.09948500       0.59948500 </v>
   <v>       0.33960500       0.59948500       0.09948500 </v>
   <v>       0.33960500       0.59948500       0.59948500 </v>
   <v>       0.83960500       0.09948500       0.09948500 </v>
   <v>       0.83960500       0.09948500       0.59948500 </v>
   <v>       0.83960500       0.59948500       0.09948500 </v>
   <v>       0.83960500       0.59948500       0.59948500 </v>
   <v>       0.09948500       0.09948500       0.33960500 </v>
   <v>       0.09948500       0.09948500       0.83960500 </v>
   <v>       0.09948500       0.59948500       0.33960500 </v>
   <v>       0.09948500       0.59948500       0.83960500 </v>
   <v>       0.59948500       0.09948500       0.33960500 </v>
   <v>       0.59948500       0.09948500       0.83960500 </v>
   <v>       0.59948500       0.59948500       0.33960500 </v>
   <v>       0.59948500       0.59948500       0.83960500 </v>
   <v>       0.09948500       0.33960500       0.09948500 </v>
   <v>       0.09948500       0.33960500       0.59948500 </v>
   <v>       0.09948500       0.83960500       0.09948500 </v>
   <v>       0.09948500       0.83960500       0.59948500 </v>
   <v>       0.59948500       0.33960500       0.09948500 </v>
   <v>       0.59948500       0.33960500       0.59948500 </v>
   <v>       0.59948500       0.83960500       0.09948500 </v>
   <v>       0.59948500       0.83960500       0.59948500 </v>
   <v>       0.33229300       0.00011500       0.00011500 </v>
   <v>       0.33229300       0.00011500       0.50011500 </v>
   <v>       0.33229300       0.50011500       0.00011500 </v>
   <v>       0.33229300       0.50011500       0.50011500 </v>
   <v>       0.83229300       0.00011500       0.00011500 </v>
   <v>       0.83229300       0.00011500       0.50011500 </v>
   <v>       0.83229300       0.50011500       0.00011500 </v>
   <v>       0.83229300       0.50011500       0.50011500 </v>
   <v>       0.00011500       0.00011500       0.33229300 </v>
   <v>       0.00011500       0.00011500       0.83229300 </v>
   <v>       0.00011500       0.50011500       0.33229300 </v>
   <v>       0.00011500       0.50011500       0.83229300 </v>
   <v>       0.50011500       0.00011500       0.33229300 </v>
   <v>       0.50011500       0.00011500       0.83229300 </v>
   <v>       0.50011500       0.50011500       0.33229300 </v>
   <v>       0.50011500       0.50011500       0.83229300 </v>
   <v>       0.00011500       0.33229300       0.00011500 </v>
   <v>       0.00011500       0.33229300       0.50011500 </v>
   <v>       0.00011500       0.83229300       0.00011500 </v>
   <v>       0.00011500       0.83229300       0.50011500 </v>
   <v>       0.50011500       0.33229300       0.00011500 </v>
   <v>       0.50011500       0.33229300       0.50011500 </v>
   <v>       0.50011500       0.83229300       0.00011500 </v>
   <v>       0.50011500       0.83229300       0.50011500 </v>
   <v>       0.16770700       0.99988500       0.99988500 </v>
   <v>       0.16770700       0.99988500       0.49988500 </v>
   <v>       0.16770700       0.49988500       0.99988500 </v>
   <v>       0.16770700       0.49988500       0.49988500 </v>
   <v>       0.66770700       0.99988500       0.99988500 </v>
   <v>       0.66770700       0.99988500       0.49988500 </v>
   <v>       0.66770700       0.49988500       0.99988500 </v>
   <v>       0.66770700       0.49988500       0.49988500 </v>
   <v>       0.99988500       0.99988500       0.16770700 </v>
   <v>       0.99988500       0.99988500       0.66770700 </v>
   <v>       0.99988500       0.49988500       0.16770700 </v>
   <v>       0.99988500       0.49988500       0.66770700 </v>
   <v>       0.49988500       0.99988500       0.16770700 </v>
   <v>       0.49988500       0.99988500       0.66770700 </v>
   <v>       0.49988500       0.49988500       0.16770700 </v>
   <v>       0.49988500       0.49988500       0.66770700 </v>
   <v>       0.99988500       0.16770700       0.99988500 </v>
   <v>       0.99988500       0.16770700       0.49988500 </v>
   <v>       0.99988500       0.66770700       0.99988500 </v>
   <v>       0.99988500       0.66770700       0.49988500 </v>
   <v>       0.49988500       0.16770700       0.99988500 </v>
   <v>       0.49988500       0.16770700       0.49988500 </v>
   <v>       0.49988500       0.66770700       0.99988500 </v>
   <v>       0.49988500       0.66770700       0.49988500 </v>
   <v>       0.31539700       0.31539700       0.31539700 </v>
   <v>       0.31539700       0.31539700       0.81539700 </v>
   <v>       0.31539700       0.81539700       0.31539700 </v>
   <v>       0.31539700       0.81539700       0.81539700 </v>
   <v>       0.81539700       0.31539700       0.31539700 </v>
   <v>       0.81539700       0.31539700       0.81539700 </v>
   <v>       0.81539700       0.81539700       0.31539700 </v>
   <v>       0.81539700       0.81539700       0.81539700 </v>
   <v>       0.18460300       0.18460300       0.18460300 </v>
   <v>       0.18460300       0.18460300       0.68460300 </v>
   <v>       0.18460300       0.68460300       0.18460300 </v>
   <v>       0.18460300       0.68460300       0.68460300 </v>
   <v>       0.68460300       0.18460300       0.18460300 </v>
   <v>       0.68460300       0.18460300       0.68460300 </v>
   <v>       0.68460300       0.68460300       0.18460300 </v>
   <v>       0.68460300       0.68460300       0.68460300 </v>
  </varray>
  <varray name="velocities" >
   <v>      -0.00002814      -0.00001819       0.00002341 </v>
   <v>      -0.00001761       0.00001272       0.00000498 </v>
   <v>      -0.00005053       0.00000462       0.00003156 </v>
   <v>       0.00000349      -0.00000817      -0.00000667 </v>
   <v>      -0.00003051      -0.00002549       0.00001563 </v>
   <v>      -0.00000936      -0.00000058      -0.00002815 </v>
   <v>      -0.00003099      -0.00000685       0.00004131 </v>
   <v>       0.00001875      -0.00005274       0.00003595 </v>
   <v>      -0.00001636       0.00001135       0.00001094 </v>
   <v>      -0.00004128       0.00003895      -0.00003903 </v>
   <v>      -0.00000117       0.00005030      -0.00010121 </v>
   <v>      -0.00007085       0.00003042      -0.00001427 </v>
   <v>      -0.00000734       0.00004837      -0.00001595 </v>
   <v>       0.00001546       0.00005474      -0.00004891 </v>
   <v>       0.00005551      -0.00001568       0.00000155 </v>
   <v>       0.00005234      -0.00001689      -0.00002045 </v>
   <v>      -0.00004703       0.00010422      -0.00003236 </v>
   <v>      -0.00001187      -0.00000987       0.00003119 </v>
   <v>       0.00004216      -0.00000972       0.00000942 </v>
   <v>      -0.00000824       0.00002690      -0.00005413 </v>
   <v>       0.00003001       0.00002501      -0.00004609 </v>
   <v>      -0.00007953       0.00001365       0.00000603 </v>
   <v>       0.00005871      -0.00006080      -0.00002994 </v>
   <v>      -0.00001339      -0.00003252       0.00000750 </v>
   <v>       0.00005355       0.00001356       0.00000021 </v>
   <v>       0.00003184      -0.00004720       0.00002320 </v>
   <v>      -0.00001953      -0.00002086       0.00002805 </v>
   <v>       0.00001460       0.00001229      -0.00001042 </v>
   <v>       0.00000516      -0.00005153       0.00000652 </v>
   <v>      -0.00001128       0.00004966       0.00001921 </v>
   <v>       0.00005840      -0.00005424       0.00001594 </v>
   <v>       0.00000171       0.00001561      -0.00002085 </v>
   <v>      -0.00000981      -0.00000930      -0.00001170 </v>
   <v>       0.00004251       0.00001620       0.00004860 </v>
   <v>      -0.00003048       0.00003462       0.00001951 </v>
   <v>       0.00000969       0.00000680       0.00001370 </v>
   <v>      -0.00000925      -0.00000692       0.00004832 </v>
   <v>       0.00000332       0.00006161       0.00000584 </v>
   <v>      -0.00001631       0.00000535      -0.00003271 </v>
   <v>      -0.00001734       0.00004093       0.00001793 </v>
   <v>      -0.00002141       0.00003911      -0.00001075 </v>
   <v>      -0.00002892      -0.00002426       0.00000303 </v>
   <v>      -0.00001786       0.00001413      -0.00001796 </v>
   <v>      -0.00004108       0.00007654      -0.00004256 </v>
   <v>      -0.00001286      -0.00002346      -0.00001112 </v>
   <v>      -0.00001027       0.00001992      -0.00007081 </v>
   <v>      -0.00007425       0.00000740       0.00004770 </v>
   <v>      -0.00003174      -0.00000782       0.00001433 </v>
   <v>      -0.00000142       0.00001454      -0.00003688 </v>
   <v>       0.00000698      -0.00001685      -0.00003436 </v>
   <v>       0.00001383      -0.00004196       0.00008729 </v>
   <v>      -0.00007018       0.00006112       0.00003054 </v>
   <v>      -0.00000637      -0.00002833      -0.00000678 </v>
   <v>      -0.00001811      -0.00001118      -0.00003582 </v>
   <v>       0.00008576      -0.00002144      -0.00001282 </v>
   <v>       0.00004388       0.00001758      -0.00005309 </v>
   <v>      -0.00003246      -0.00000231       0.00005908 </v>
   <v>       0.00000794      -0.00000450      -0.00001253 </v>
   <v>      -0.00002986       0.00001963       0.00000517 </v>
   <v>       0.00000807       0.00004796       0.00001266 </v>
   <v>      -0.00000918       0.00001196       0.00002691 </v>
   <v>       0.00000252      -0.00005007      -0.00003601 </v>
   <v>       0.00001363      -0.00000682      -0.00004728 </v>
   <v>      -0.00000303      -0.00003395      -0.00003138 </v>
   <v>      -0.00002097       0.00004853      -0.00000476 </v>
   <v>      -0.00000620       0.00003795      -0.00002615 </v>
   <v>       0.00002238      -0.00003381       0.00004929 </v>
   <v>      -0.00003146       0.00004414      -0.00000713 </v>
   <v>       0.00001343       0.00005980       0.00001880 </v>
   <v>      -0.00004399       0.00005123       0.00001354 </v>
   <v>       0.00002495      -0.00006983       0.00004793 </v>
   <v>      -0.00000927      -0.00003006       0.00000254 </v>
   <v>       0.00001411      -0.00001182      -0.00002864 </v>
   <v>       0.00003375       0.00004529       0.00001846 </v>
   <v>       0.00006092      -0.00002968      -0.00001100 </v>
   <v>       0.00003704      -0.00002902      -0.00001526 </v>
   <v>       0.00000220       0.00001426       0.00001408 </v>
   <v>      -0.00002300       0.00002421      -0.00000791 </v>
   <v>      -0.00002524       0.00002966       0.00003134 </v>
   <v>       0.00000461      -0.00003480       0.00000167 </v>
   <v>      -0.00007293       0.00000500       0.00004155 </v>
   <v>       0.00005019      -0.00002866       0.00000265 </v>
   <v>       0.00004046      -0.00001339      -0.00005184 </v>
   <v>      -0.00004827      -0.00001807       0.00001345 </v>
   <v>       0.00000481      -0.00000049       0.00001504 </v>
   <v>       0.00002622      -0.00000905       0.00003621 </v>
   <v>      -0.00003182       0.00000454      -0.00000583 </v>
   <v>      -0.00003077       0.00000631       0.00004500 </v>
   <v>       0.00003719       0.00003005      -0.00004173 </v>
   <v>       0.00005284      -0.00002656      -0.00001034 </v>
   <v>       0.00002584       0.00000876      -0.00000883 </v>
   <v>      -0.00008731      -0.00000993       0.00003935 </v>
   <v>       0.00004996      -0.00009124       0.00004398 </v>
   <v>       0.00001189      -0.00005250       0.00006099 </v>
   <v>      -0.00000981      -0.00003909       0.00001978 </v>
   <v>       0.00007914      -0.00003297      -0.00004745 </v>
   <v>      -0.00000178      -0.00003594       0.00002897 </v>
   <v>       0.00003244       0.00002040      -0.00005064 </v>
   <v>       0.00003524       0.00003626      -0.00008453 </v>
   <v>       0.00001262      -0.00009415       0.00002429 </v>
   <v>       0.00002711       0.00002914      -0.00002323 </v>
   <v>       0.00000684       0.00000685       0.00000749 </v>
   <v>      -0.00000531       0.00001244      -0.00001211 </v>
   <v>      -0.00006755      -0.00002532       0.00002972 </v>
   <v>       0.00001130      -0.00000565       0.00000947 </v>
   <v>      -0.00000150      -0.00000257      -0.00000277 </v>
   <v>       0.00006258      -0.00000701       0.00001130 </v>
   <v>       0.00004768      -0.00001818      -0.00002947 </v>
   <v>       0.00001863      -0.00003407       0.00005230 </v>
   <v>      -0.00003328       0.00003090      -0.00000170 </v>
   <v>       0.00001222       0.00001048      -0.00000313 </v>
   <v>      -0.00001641      -0.00004597       0.00001797 </v>
  </varray>
 </structure>
 <calculation>
  <scstep>
   <time name="dav">    6.14    6.14</time>
   <time name="total">    6.42    6.43</time>
   <energy>
    <i name="alphaZ">   1022.33526304 </i>
    <i name="ewald">  -9999.22672725 </i>
    <i name="hartreedc">  -1053.89064915 </i>
    <i name="XCdc">    897.62976821 </i>
    <i name="pawpsdc">   5912.33983061 </i>
    <i name="pawaedc">  -5839.33960861 </i>
    <i name="eentropy">      0.00000000 </i>
    <i name="bandstr">   1237.03569384 </i>
    <i name="atom">   9186.75495500 </i>
    <i name="e_fr_energy">   1363.63852569 </i>
    <i name="e_wo_entrp">   1363.63852569 </i>
    <i name="e_0_energy">   1363.63852569 </i>
   </energy>
  </scstep>
  <scstep>
   <time name="dav">    7.28    7.27</time>
   <time name="total">    7.30    7.30</time>
   <energy>
    <i name="e_fr_energy">   -713.21497130 </i>
    <i name="e_wo_entrp">   -713.21497130 </i>
    <i name="e_0_energy">   -713.21497130 </i>
   </energy>
  </scstep>
  <scstep>
   <time name="dav">    7.00    7.00</time>
   <time name="total">    7.02    7.02</time>
   <energy>
    <i name="e_fr_energy">   -837.43391037 </i>
    <i name="e_wo_entrp">   -837.43391037 </i>
    <i name="e_0_energy">   -837.43391037 </i>
   </energy>
  </scstep>
  <scstep>
   <time name="dav">    6.90    6.90</time>
   <time name="total">    6.93    6.93</time>
   <energy>
    <i name="e_fr_energy">   -840.26821989 </i>
    <i name="e_wo_entrp">   -840.26821989 </i>
    <i name="e_0_energy">   -840.26821989 </i>
   </energy>
  </scstep>
  <scstep>
   <time name="dav">    6.85    6.86</time>
   <time name="total">    8.57    8.57</time>
   <energy>
    <i name="e_fr_energy">   -840.34498274 </i>
    <i name="e_wo_entrp">   -840.34498274 </i>
    <i name="e_0_energy">   -840.34498274 </i>
   </energy>
  </scstep>
  <scstep>
   <time name="diag">    1.31    1.31</time>
   <time name="diis">    5.60    5.55</time>
   <time name="orth">    0.04    0.04</time>
   <time name="total">    8.90    8.85</time>
   <energy>
    <i name="e_fr_energy">   -804.41820130 </i>
    <i name="e_wo_entrp">   -804.41820130 </i>
    <i name="e_0_energy">   -804.41820130 </i>
   </energy>
  </scstep>
  <scstep>
   <time name="diag">    1.31    1.31</time>
   <time name="diis">    5.58    5.54</time>
   <time name="orth">    0.04    0.04</time>
   <time name="total">    8.86    8.81</time>
   <energy>
    <i name="e_fr_energy">   -793.81393256 </i>
    <i name="e_wo_entrp">   -793.81393256 </i>
    <i name="e_0_energy">   -793.81393256 </i>
   </energy>
  </scstep>
  <scstep>
   <time name="diag">    1.32    1.32</time>
   <time name="diis">    5.64    5.59</time>
   <time name="orth">    0.04    0.04</time>
   <time name="total">    8.93    8.87</time>
   <energy>
    <i name="e_fr_energy">   -793.99355481 </i>
    <i name="e_wo_entrp">   -793.99355481 </i>
    <i name="e_0_energy">   -793.99355481 </i>
   </energy>
  </scstep>
  <scstep>
   <time name="diag">    1.31    1.31</time>
   <time name="diis">    5.56    5.50</time>
   <time name="orth">    0.04    0.04</time>
   <time name="total">    8.87    8.81</time>
   <energy>
    <i name="e_fr_energy">   -794.05319024 </i>
    <i name="e_wo_entrp">   -794.05319024 </i>
    <i name="e_0_energy">   -794.05319024 </i>
   </energy>
  </scstep>
  <scstep>
   <time name="diag">    1.31    1.31</time>
   <time name="diis">    5.56    5.51</time>
   <time name="orth">    0.04    0.04</time>
   <time name="total">    8.84    8.79</time>
   <energy>
    <i name="e_fr_energy">   -794.03853169 </i>
    <i name="e_wo_entrp">   -794.03853169 </i>
    <i name="e_0_energy">   -794.03853169 </i>
   </energy>
  </scstep>
  <scstep>
   <time name="diag">    1.31    1.31</time>
   <time name="diis">    5.66    5.61</time>
   <time name="orth">    0.04    0.04</time>
   <time name="total">    8.99    8.94</time>
   <energy>
    <i name="e_fr_energy">   -794.03271056 </i>
    <i name="e_wo_entrp">   -794.03271056 </i>
    <i name="e_0_energy">   -794.03271056 </i>
   </energy>
  </scstep>
  <scstep>
   <time name="diag">    1.29    1.29</time>
   <time name="diis">    5.59    5.54</time>
   <time name="orth">    0.04    0.04</time>
   <time name="total">    8.88    8.83</time>
   <energy>
    <i name="e_fr_energy">   -794.03502732 </i>
    <i name="e_wo_entrp">   -794.03502732 </i>
    <i name="e_0_energy">   -794.03502732 </i>
   </energy>
  </scstep>
  <scstep>
   <time name="diag">    1.32    1.32</time>
   <time name="diis">    5.62    5.58</time>
   <time name="orth">    0.04    0.04</time>
   <time name="total">    8.91    8.87</time>
   <energy>
    <i name="e_fr_energy">   -794.03638546 </i>
    <i name="e_wo_entrp">   -794.03638546 </i>
    <i name="e_0_energy">   -794.03638546 </i>
   </energy>
  </scstep>
  <scstep>
   <time name="diag">    1.32    1.31</time>
   <time name="diis">    4.44    4.41</time>
   <time name="orth">    0.04    0.04</time>
   <time name="total">    7.75    7.72</time>
   <energy>
    <i name="e_fr_energy">   -794.03725879 </i>
    <i name="e_wo_entrp">   -794.03725879 </i>
    <i name="e_0_energy">   -794.03725879 </i>
   </energy>
  </scstep>
  <scstep>
   <time name="diag">    1.31    1.31</time>
   <time name="diis">    4.07    4.06</time>
   <time name="orth">    0.04    0.04</time>
   <time name="total">    7.38    7.36</time>
   <energy>
    <i name="e_fr_energy">   -794.03588608 </i>
    <i name="e_wo_entrp">   -794.03588608 </i>
    <i name="e_0_energy">   -794.03588608 </i>
   </energy>
  </scstep>
  <scstep>
   <time name="diag">    1.30    1.30</time>
   <time name="diis">    3.55    3.53</time>
   <time name="orth">    0.04    0.04</time>
   <time name="total">    5.16    5.14</time>
   <energy>
    <i name="alphaZ">   1022.33526304 </i>
    <i name="ewald">  -9999.22672725 </i>
    <i name="hartreedc">  -1478.08955742 </i>
    <i name="XCdc">    928.34936711 </i>
    <i name="pawpsdc">  32657.99570875 </i>
    <i name="pawaedc"> -32594.72676429 </i>
    <i name="eentropy">      0.00000000 </i>
    <i name="bandstr">   -517.42819435 </i>
    <i name="atom">   9186.75495500 </i>
    <i name="e_fr_energy">   -794.03594940 </i>
    <i name="e_wo_entrp">   -794.03594940 </i>
    <i name="e_0_energy">   -794.03594940 </i>
   </energy>
  </scstep>
  <structure>
   <crystal>
    <varray name="basis" >
     <v>       9.42496400       0.07257100       4.30697600 </v>
     <v>       2.79597900       9.00098600       4.30697700 </v>
     <v>       0.09774300       0.07257100      10.36197100 </v>
    </varray>
    <i name="volume">    871.11398866 </i>
    <varray name="rec_basis" >
     <v>       0.10670865      -0.03277513      -0.00077702 </v>
     <v>      -0.00050443       0.11162744      -0.00077703 </v>
     <v>      -0.04414402      -0.03277515       0.09715268 </v>
    </varray>
   </crystal>
   <varray name="positions" >
    <v>       0.16039500       0.40051500       0.40051500 </v>
    <v>       0.16039500       0.40051500       0.90051500 </v>
    <v>       0.16039500       0.90051500       0.40051500 </v>
    <v>       0.16039500       0.90051500       0.90051500 </v>
    <v>       0.66039500       0.40051500       0.40051500 </v>
    <v>       0.66039500       0.40051500       0.90051500 </v>
    <v>       0.66039500       0.90051500       0.40051500 </v>
    <v>       0.66039500       0.90051500       0.90051500 </v>
    <v>       0.40051500       0.40051500       0.16039500 </v>
    <v>       0.40051500       0.40051500       0.66039500 </v>
    <v>       0.40051500       0.90051500       0.16039500 </v>
    <v>       0.40051500       0.90051500       0.66039500 </v>
    <v>       0.90051500       0.40051500       0.16039500 </v>
    <v>       0.90051500       0.40051500       0.66039500 </v>
    <v>       0.90051500       0.90051500       0.16039500 </v>
    <v>       0.90051500       0.90051500       0.66039500 </v>
    <v>       0.40051500       0.16039500       0.40051500 </v>
    <v>       0.40051500       0.16039500       0.90051500 </v>
    <v>       0.40051500       0.66039500       0.40051500 </v>
    <v>       0.40051500       0.66039500       0.90051500 </v>
    <v>       0.90051500       0.16039500       0.40051500 </v>
    <v>       0.90051500       0.16039500       0.90051500 </v>
    <v>       0.90051500       0.66039500       0.40051500 </v>
    <v>       0.90051500       0.66039500       0.90051500 </v>
    <v>       0.33960500       0.09948500       0.09948500 </v>
    <v>       0.33960500       0.09948500       0.59948500 </v>
    <v>       0.33960500       0.59948500       0.09948500 </v>
    <v>       0.33960500       0.59948500       0.59948500 </v>
    <v>       0.83960500       0.09948500       0.09948500 </v>
    <v>       0.83960500       0.09948500       0.59948500 </v>
    <v>       0.83960500       0.59948500       0.09948500 </v>
    <v>       0.83960500       0.59948500       0.59948500 </v>
    <v>       0.09948500       0.09948500       0.33960500 </v>
    <v>       0.09948500       0.09948500       0.83960500 </v>
    <v>       0.09948500       0.59948500       0.33960500 </v>
    <v>       0.09948500       0.59948500       0.83960500 </v>
    <v>       0.59948500       0.09948500       0.33960500 </v>
    <v>       0.59948500       0.09948500       0.83960500 </v>
    <v>       0.59948500       0.59948500       0.33960500 </v>
    <v>       0.59948500       0.59948500       0.83960500 </v>
    <v>       0.09948500       0.33960500       0.09948500 </v>
    <v>       0.09948500       0.33960500       0.59948500 </v>
    <v>       0.09948500       0.83960500       0.09948500 </v>
    <v>       0.09948500       0.83960500       0.59948500 </v>
    <v>       0.59948500       0.33960500       0.09948500 </v>
    <v>       0.59948500       0.33960500       0.59948500 </v>
    <v>       0.59948500       0.83960500       0.09948500 </v>
    <v>       0.59948500       0.83960500       0.59948500 </v>
    <v>       0.33229300       0.00011500       0.00011500 </v>
    <v>       0.33229300       0.00011500       0.50011500 </v>
    <v>       0.33229300       0.50011500       0.00011500 </v>
    <v>       0.33229300       0.50011500       0.50011500 </v>
    <v>       0.83229300       0.00011500       0.00011500 </v>
    <v>       0.83229300       0.00011500       0.50011500 </v>
    <v>       0.83229300       0.50011500       0.00011500 </v>
    <v>       0.83229300       0.50011500       0.50011500 </v>
    <v>       0.00011500       0.00011500       0.33229300 </v>
    <v>       0.00011500       0.00011500       0.83229300 </v>
    <v>       0.00011500       0.50011500       0.33229300 </v>
    <v>       0.00011500       0.50011500       0.83229300 </v>
    <v>       0.50011500       0.00011500       0.33229300 </v>
    <v>       0.50011500       0.00011500       0.83229300 </v>
    <v>       0.50011500       0.50011500       0.33229300 </v>
    <v>       0.50011500       0.50011500       0.83229300 </v>
    <v>       0.00011500       0.33229300       0.00011500 </v>
    <v>       0.00011500       0.33229300       0.50011500 </v>
    <v>       0.00011500       0.83229300       0.00011500 </v>
    <v>       0.00011500       0.83229300       0.50011500 </v>
    <v>       0.50011500       0.33229300       0.00011500 </v>
    <v>       0.50011500       0.33229300       0.50011500 </v>
    <v>       0.50011500       0.83229300       0.00011500 </v>
    <v>       0.50011500       0.83229300       0.50011500 </v>
    <v>       0.16770700       0.99988500       0.99988500 </v>
    <v>       0.16770700       0.99988500       0.49988500 </v>
    <v>       0.16770700       0.49988500       0.99988500 </v>
    <v>       0.16770700       0.49988500       0.49988500 </v>
    <v>       0.66770700       0.99988500       0.99988500 </v>
    <v>       0.66770700       0.99988500       0.49988500 </v>
    <v>       0.66770700       0.49988500       0.99988500 </v>
    <v>       0.66770700       0.49988500       0.49988500 </v>
    <v>       0.99988500       0.99988500       0.16770700 </v>
    <v>       0.99988500       0.99988500       0.66770700 </v>
    <v>       0.99988500       0.49988500       0.16770700 </v>
    <v>       0.99988500       0.49988500       0.66770700 </v>
    <v>       0.49988500       0.99988500       0.16770700 </v>
    <v>       0.49988500       0.99988500       0.66770700 </v>
    <v>       0.49988500       0.49988500       0.16770700 </v>
    <v>       0.49988500       0.49988500       0.66770700 </v>
    <v>       0.99988500       0.16770700       0.99988500 </v>
    <v>       0.99988500       0.16770700       0.49988500 </v>
    <v>       0.99988500       0.66770700       0.99988500 </v>
    <v>       0.99988500       0.66770700       0.49988500 </v>
    <v>       0.49988500       0.16770700       0.99988500 </v>
    <v>       0.49988500       0.16770700       0.49988500 </v>
    <v>       0.49988500       0.66770700       0.99988500 </v>
    <v>       0.49988500       0.66770700       0.49988500 </v>
    <v>       0.31539700       0.31539700       0.31539700 </v>
    <v>       0.31539700       0.31539700       0.81539700 </v>
    <v>       0.31539700       0.81539700       0.31539700 </v>
    <v>       0.31539700       0.81539700       0.81539700 </v>
    <v>       0.81539700       0.31539700       0.31539700 </v>
    <v>       0.81539700       0.31539700       0.81539700 </v>
    <v>       0.81539700       0.81539700       0.31539700 </v>
    <v>       0.81539700       0.81539700       0.81539700 </v>
    <v>       0.18460300       0.18460300       0.18460300 </v>
    <v>       0.18460300       0.18460300       0.68460300 </v>
    <v>       0.18460300       0.68460300       0.18460300 </v>
    <v>       0.18460300       0.68460300       0.68460300 </v>
    <v>       0.68460300       0.18460300       0.18460300 </v>
    <v>       0.68460300       0.18460300       0.68460300 </v>
    <v>       0.68460300       0.68460300       0.18460300 </v>
    <v>       0.68460300       0.68460300       0.68460300 </v>
   </varray>
  </structure>
  <varray name="forces" >
   <v>      -0.04143481      -0.01815500      -0.04055608 </v>
   <v>      -0.04148098      -0.02627949      -0.04643194 </v>
   <v>      -0.06791590      -0.00204749      -0.02235558 </v>
   <v>      -0.04005517      -0.01435061      -0.04331512 </v>
   <v>      -0.03947892      -0.02128349      -0.03288760 </v>
   <v>      -0.01450097      -0.03686469      -0.06080494 </v>
   <v>      -0.03661093      -0.01259679      -0.03461419 </v>
   <v>      -0.03773861      -0.01686605      -0.03612294 </v>
   <v>      -0.04535050      -0.03258190      -0.02513797 </v>
   <v>      -0.04256142      -0.02543028      -0.03187836 </v>
   <v>      -0.03938988      -0.01937678      -0.02794236 </v>
   <v>      -0.02438627      -0.01384613      -0.04463771 </v>
   <v>      -0.03542072      -0.02321319      -0.02590433 </v>
   <v>      -0.02044670      -0.01777560      -0.04738148 </v>
   <v>      -0.01229951      -0.00855910      -0.03777483 </v>
   <v>      -0.01003073      -0.00068655      -0.04449686 </v>
   <v>      -0.02746197      -0.02459601      -0.03573898 </v>
   <v>      -0.03774803      -0.01492655      -0.03823203 </v>
   <v>      -0.03601038      -0.01510302      -0.03011226 </v>
   <v>      -0.03357308       0.00579958      -0.05008747 </v>
   <v>      -0.02184684      -0.04593420      -0.01273606 </v>
   <v>      -0.02322273      -0.02722475      -0.03945820 </v>
   <v>      -0.01697450      -0.02508696      -0.02509335 </v>
   <v>      -0.03058117      -0.01344925      -0.03177391 </v>
   <v>       0.03701016       0.01732317       0.03647989 </v>
   <v>       0.03733788       0.01214369       0.03426836 </v>
   <v>       0.01524458       0.03639093       0.06043596 </v>
   <v>       0.03874392       0.02175016       0.03323258 </v>
   <v>       0.04078608       0.01389252       0.04296056 </v>
   <v>       0.06716621       0.00252318       0.02272858 </v>
   <v>       0.04075876       0.02672718       0.04678387 </v>
   <v>       0.04215496       0.01770056       0.04020442 </v>
   <v>       0.01064932       0.00113718       0.04397523 </v>
   <v>       0.01168634       0.00811394       0.03830511 </v>
   <v>       0.01982248       0.01731366       0.04791160 </v>
   <v>       0.03602077       0.02366520       0.02538085 </v>
   <v>       0.02377909       0.01338668       0.04516876 </v>
   <v>       0.04001186       0.01983964       0.02741427 </v>
   <v>       0.04316244       0.02587843       0.03135871 </v>
   <v>       0.04472863       0.03212373       0.02565812 </v>
   <v>       0.03080513       0.01262058       0.03212837 </v>
   <v>       0.01675624       0.02591314       0.02473646 </v>
   <v>       0.02299050       0.02806955       0.03909732 </v>
   <v>       0.02206662       0.04511155       0.01308644 </v>
   <v>       0.03334167      -0.00498785       0.04975187 </v>
   <v>       0.03624052       0.01425607       0.03046850 </v>
   <v>       0.03798375       0.01410094       0.03857287 </v>
   <v>       0.02723291       0.02542230       0.03538810 </v>
   <v>       0.02162434       0.01322116       0.03839734 </v>
   <v>      -0.02629306       0.01945230       0.01738107 </v>
   <v>       0.04720112       0.00319749       0.02616175 </v>
   <v>       0.02424076       0.02251548       0.03199254 </v>
   <v>       0.03187244       0.00573537       0.03378511 </v>
   <v>      -0.01863149       0.02187954       0.02262235 </v>
   <v>       0.06379876       0.00520504       0.03478081 </v>
   <v>       0.03439288       0.01511292       0.02736698 </v>
   <v>       0.04141394       0.03172910      -0.01785216 </v>
   <v>       0.03889957       0.03081416      -0.02906390 </v>
   <v>       0.01959685       0.02376226      -0.00002711 </v>
   <v>       0.02846361       0.02949983      -0.00482892 </v>
   <v>       0.02628651       0.01394697       0.00581576 </v>
   <v>       0.03584065       0.02021709      -0.00856765 </v>
   <v>       0.02024300       0.01589420       0.05484013 </v>
   <v>       0.01762819       0.01499762       0.04358199 </v>
   <v>       0.01294652      -0.02320701       0.03094982 </v>
   <v>       0.01405427      -0.05033249       0.02489068 </v>
   <v>       0.00742210      -0.01531224       0.02552672 </v>
   <v>       0.02001195      -0.04084038       0.03095883 </v>
   <v>       0.02071106       0.02666324       0.03508954 </v>
   <v>       0.02207701      -0.02692118       0.02312992 </v>
   <v>       0.02678312       0.03603700       0.04121118 </v>
   <v>       0.01868488      -0.01032907       0.02098519 </v>
   <v>      -0.03197102      -0.00560107      -0.03364470 </v>
   <v>       0.01872569      -0.02200802      -0.02275717 </v>
   <v>      -0.06370594      -0.00533878      -0.03492149 </v>
   <v>      -0.03450770      -0.01499373      -0.02723861 </v>
   <v>      -0.02152373      -0.01333880      -0.03853711 </v>
   <v>       0.02618747      -0.01933155      -0.01724395 </v>
   <v>      -0.04729627      -0.00307616      -0.02601805 </v>
   <v>      -0.02414395      -0.02264202      -0.03213658 </v>
   <v>      -0.03873549      -0.03070099       0.02903944 </v>
   <v>      -0.04157178      -0.03184075       0.01787182 </v>
   <v>      -0.02862737      -0.02961581       0.00485908 </v>
   <v>      -0.01943436      -0.02365830       0.00000093 </v>
   <v>      -0.03598979      -0.02032674       0.00859698 </v>
   <v>      -0.02613144      -0.01382835      -0.00584281 </v>
   <v>      -0.01748313      -0.01486198      -0.04361028 </v>
   <v>      -0.02040284      -0.01600972      -0.05480453 </v>
   <v>      -0.00734133       0.01519129      -0.02539326 </v>
   <v>      -0.02011112       0.04096881      -0.03109697 </v>
   <v>      -0.01303889       0.02333965      -0.03108066 </v>
   <v>      -0.01397162       0.05020104      -0.02475917 </v>
   <v>      -0.02686651      -0.03589880      -0.04135036 </v>
   <v>      -0.01859351       0.01020358      -0.02084111 </v>
   <v>      -0.02061748      -0.02679151      -0.03496552 </v>
   <v>      -0.02216160       0.02702946      -0.02326573 </v>
   <v>       0.00813697      -0.00760828       0.00373013 </v>
   <v>       0.01587962       0.00271972      -0.00400098 </v>
   <v>       0.02219836       0.00214288      -0.00186784 </v>
   <v>       0.01108434       0.00202768      -0.00289433 </v>
   <v>       0.02312569       0.00178151      -0.00982366 </v>
   <v>       0.01058428       0.00053032       0.00560843 </v>
   <v>       0.00121863       0.00091105       0.00229276 </v>
   <v>       0.02106031      -0.00505612      -0.00526792 </v>
   <v>      -0.02023635       0.00566735       0.00653346 </v>
   <v>      -0.00205191      -0.00153534      -0.00358054 </v>
   <v>      -0.01142367      -0.00112310      -0.00687430 </v>
   <v>      -0.02228468      -0.00116932       0.01109831 </v>
   <v>      -0.01194023      -0.00261963       0.00162290 </v>
   <v>      -0.02135971      -0.00153985       0.00312732 </v>
   <v>      -0.01503706      -0.00208871       0.00526481 </v>
   <v>      -0.00895465       0.00698030      -0.00499713 </v>
  </varray>
  <energy>
   <i name="e_fr_energy">   -794.03594940 </i>
   <i name="e_wo_entrp">   -794.03594940 </i>
   <i name="e_0_energy">   -794.03594940 </i>
   <i name="kinetic">      0.07181673 </i>
   <i name="lattice kinetic">      0.00000000 </i>
   <i name="nosepot">      0.00000000 </i>
   <i name="nosekinetic">      0.00000000 </i>
   <i name="total">   -793.96413267 </i>
  </energy>
  <time name="totalsc">  142.44  142.78</time>
 </calculation>
 <calculation>
  <scstep>
   <time name="dav">    6.56    6.56</time>
   <time name="total">    8.49    8.49</time>
   <energy>
    <i name="alphaZ">   1022.33526304 </i>
    <i name="ewald">  -9999.18505675 </i>
    <i name="hartreedc">  -1478.21669195 </i>
    <i name="XCdc">    928.35814977 </i>
    <i name="pawpsdc">  32657.61861733 </i>
    <i name="pawaedc"> -32594.34978445 </i>
    <i name="eentropy">      0.00000000 </i>
    <i name="bandstr">   -517.35129337 </i>
    <i name="atom">   9186.75495500 </i>
    <i name="e_fr_energy">   -794.03584137 </i>
    <i name="e_wo_entrp">   -794.03584137 </i>
    <i name="e_0_energy">   -794.03584137 </i>
   </energy>
  </scstep>
  <scstep>
   <time name="diag">    1.32    1.32</time>
   <time name="diis">    5.60    5.54</time>
   <time name="orth">    0.04    0.04</time>
   <time name="total">    8.89    8.83</time>
   <energy>
    <i name="e_fr_energy">   -794.03528007 </i>
    <i name="e_wo_entrp">   -794.03528007 </i>
    <i name="e_0_energy">   -794.03528007 </i>
   </energy>
  </scstep>
  <scstep>
   <time name="diag">    1.32    1.32</time>
   <time name="diis">    4.15    4.12</time>
   <time name="orth">    0.04    0.04</time>
   <time name="total">    7.42    7.40</time>
   <energy>
    <i name="e_fr_energy">   -794.03638270 </i>
    <i name="e_wo_entrp">   -794.03638270 </i>
    <i name="e_0_energy">   -794.03638270 </i>
   </energy>
  </scstep>
  <scstep>
   <time name="diag">    1.32    1.32</time>
   <time name="diis">    3.63    3.61</time>
   <time name="orth">    0.04    0.04</time>
   <time name="total">    6.92    6.90</time>
   <energy>
    <i name="e_fr_energy">   -794.03650349 </i>
    <i name="e_wo_entrp">   -794.03650349 </i>
    <i name="e_0_energy">   -794.03650349 </i>
   </energy>
  </scstep>
  <scstep>
   <time name="diag">    1.32    1.32</time>
   <time name="diis">    3.31    3.31</time>
   <time name="orth">    0.04    0.04</time>
   <time name="total">    6.60    6.60</time>
   <energy>
    <i name="e_fr_energy">   -794.03664989 </i>
    <i name="e_wo_entrp">   -794.03664989 </i>
    <i name="e_0_energy">   -794.03664989 </i>
   </energy>
  </scstep>
  <scstep>
   <time name="diag">    1.32    1.32</time>
   <time name="diis">    3.00    3.00</time>
   <time name="orth">    0.04    0.04</time>
   <time name="total">    6.36    6.35</time>
   <energy>
    <i name="e_fr_energy">   -794.03648366 </i>
    <i name="e_wo_entrp">   -794.03648366 </i>
    <i name="e_0_energy">   -794.03648366 </i>
   </energy>
  </scstep>
  <scstep>
   <time name="diag">    1.31    1.31</time>
   <time name="diis">    3.00    2.99</time>
   <time name="orth">    0.04    0.04</time>
   <time name="total">    4.63    4.62</time>
   <energy>
    <i name="alphaZ">   1022.33526304 </i>
    <i name="ewald">  -9999.18505675 </i>
    <i name="hartreedc">  -1478.27147887 </i>
    <i name="XCdc">    928.35926226 </i>
    <i name="pawpsdc">  32657.85864353 </i>
    <i name="pawaedc"> -32594.59038488 </i>
    <i name="eentropy">      0.00000000 </i>
    <i name="bandstr">   -517.29771384 </i>
    <i name="atom">   9186.75495500 </i>
    <i name="e_fr_energy">   -794.03651051 </i>
    <i name="e_wo_entrp">   -794.03651051 </i>
    <i name="e_0_energy">   -794.03651051 </i>
   </energy>
  </scstep>
  <structure>
   <crystal>
    <varray name="basis" >
     <v>       9.42496400       0.07257100       4.30697600 </v>
     <v>       2.79597900       9.00098600       4.30697700 </v>
     <v>       0.09774300       0.07257100      10.36197100 </v>
    </varray>
    <i name="volume">    871.11398866 </i>
    <varray name="rec_basis" >
     <v>       0.10670865      -0.03277513      -0.00077702 </v>
     <v>      -0.00050443       0.11162744      -0.00077703 </v>
     <v>      -0.04414402      -0.03277515       0.09715268 </v>
    </varray>
   </crystal>
   <varray name="positions" >
    <v>       0.16036602       0.40049637       0.40053807 </v>
    <v>       0.16037661       0.40052708       0.90051957 </v>
    <v>       0.16034287       0.90051958       0.40054675 </v>
    <v>       0.16039765       0.90050649       0.90050789 </v>
    <v>       0.66036371       0.40048899       0.40053046 </v>
    <v>       0.66038558       0.40051351       0.90048594 </v>
    <v>       0.66036324       0.90050785       0.40055601 </v>
    <v>       0.66041298       0.90046185       0.90055066 </v>
    <v>       0.40049780       0.40052555       0.16040608 </v>
    <v>       0.40047290       0.40055333       0.66035589 </v>
    <v>       0.40051304       0.90056482       0.16029371 </v>
    <v>       0.40044368       0.90054508       0.66038011 </v>
    <v>       0.90050699       0.40056280       0.16037900 </v>
    <v>       0.90053011       0.40056930       0.66034540 </v>
    <v>       0.90057029       0.90049911       0.16039592 </v>
    <v>       0.90056711       0.90049810       0.66037369 </v>
    <v>       0.40046750       0.16049861       0.40048232 </v>
    <v>       0.40050235       0.16038477       0.90054584 </v>
    <v>       0.40055642       0.66038491       0.40052424 </v>
    <v>       0.40050593       0.66042206       0.90046007 </v>
    <v>       0.90054483       0.16041887       0.40046919 </v>
    <v>       0.90043512       0.16040798       0.90052060 </v>
    <v>       0.90057349       0.66033358       0.40048487 </v>
    <v>       0.90050099       0.66036215       0.90052222 </v>
    <v>       0.33965930       0.09949898       0.09948550 </v>
    <v>       0.33963764       0.09943810       0.59950849 </v>
    <v>       0.33958555       0.59946503       0.09951394 </v>
    <v>       0.33962035       0.59949782       0.59947476 </v>
    <v>       0.83961102       0.09943380       0.09949195 </v>
    <v>       0.83959530       0.09953472       0.59950402 </v>
    <v>       0.83966416       0.59943141       0.09950136 </v>
    <v>       0.83960758       0.59950104       0.59946447 </v>
    <v>       0.09947543       0.09947572       0.33959414 </v>
    <v>       0.09952772       0.09950140       0.83965425 </v>
    <v>       0.09945486       0.59952004       0.33962523 </v>
    <v>       0.09949537       0.59949238       0.83961873 </v>
    <v>       0.59947621       0.09947840       0.33965397 </v>
    <v>       0.59948912       0.09954709       0.83961090 </v>
    <v>       0.59946953       0.59949098       0.33957235 </v>
    <v>       0.59946848       0.59952672       0.83962281 </v>
    <v>       0.09946423       0.33964442       0.09947455 </v>
    <v>       0.09945629       0.33958138       0.59948821 </v>
    <v>       0.09946747       0.83961982       0.09946746 </v>
    <v>       0.09944411       0.83968266       0.59944218 </v>
    <v>       0.59947296       0.33958140       0.09947466 </v>
    <v>       0.59947548       0.33962526       0.59941439 </v>
    <v>       0.59941155       0.83961274       0.09953306 </v>
    <v>       0.59945372       0.83959780       0.59949964 </v>
    <v>       0.33229199       0.00012986       0.00007864 </v>
    <v>       0.33229921       0.00009864       0.50008114 </v>
    <v>       0.33230792       0.50007311       0.00020237 </v>
    <v>       0.33222323       0.50017667       0.50014583 </v>
    <v>       0.83228734       0.00008680       0.00010860 </v>
    <v>       0.83227428       0.00010436       0.50007970 </v>
    <v>       0.83238023       0.50009368       0.00010226 </v>
    <v>       0.83233759       0.50013295       0.50006205 </v>
    <v>       0.00008329       0.00011347       0.33235105 </v>
    <v>       0.00012365       0.00011127       0.83227923 </v>
    <v>       0.00008543       0.50013522       0.33229781 </v>
    <v>       0.00012353       0.50016369       0.83230506 </v>
    <v>       0.50010634       0.00012730       0.33231968 </v>
    <v>       0.50011823       0.00006543       0.83225631 </v>
    <v>       0.50012899       0.50010856       0.33224659 </v>
    <v>       0.50011228       0.50008141       0.83226228 </v>
    <v>       0.00009450       0.33234094       0.00011095 </v>
    <v>       0.00010950       0.33232969       0.50008962 </v>
    <v>       0.00013766       0.83225880       0.00016488 </v>
    <v>       0.00008431       0.83233611       0.50010865 </v>
    <v>       0.50012873       0.33235346       0.00013416 </v>
    <v>       0.50007172       0.33234355       0.50012902 </v>
[...]
       <r>     4.7459     0.0000   356.0000 </r>
       <r>     4.8304     0.0000   356.0000 </r>
       <r>     4.9149     0.0614   356.0001 </r>
       <r>     4.9995    30.5656   356.8531 </r>
       <r>     5.0840    37.4811   361.0705 </r>
       <r>     5.1686    35.4632   363.6260 </r>
       <r>     5.2531    29.8411   366.5055 </r>
       <r>     5.3376     7.8864   368.0000 </r>
       <r>     5.4222     0.0000   368.0000 </r>
       <r>     5.5067     1.5589   368.0404 </r>
       <r>     5.5912     8.8041   368.4722 </r>
       <r>     5.6758    13.3309   369.4335 </r>
       <r>     5.7603    14.2051   370.6231 </r>
       <r>     5.8448    11.4266   371.7322 </r>
       <r>     5.9294    44.0941   373.4574 </r>
       <r>     6.0139    19.5322   375.0009 </r>
       <r>     6.0984    21.3210   376.7618 </r>
       <r>     6.1830    18.0370   378.4682 </r>
       <r>     6.2675    46.0455   381.4119 </r>
       <r>     6.3520     9.0329   382.7061 </r>
       <r>     6.4366     5.6797   383.3134 </r>
       <r>     6.5211     3.3403   383.6903 </r>
       <r>     6.6056     1.6183   383.8955 </r>
       <r>     6.6902     0.5137   383.9813 </r>
       <r>     6.7747     0.0265   383.9998 </r>
       <r>     6.8592     0.0000   384.0000 </r>
       <r>     6.9438     0.0000   384.0000 </r>
       <r>     7.0283     0.0000   384.0000 </r>
       <r>     7.1128     0.0000   384.0000 </r>
       <r>     7.1974     0.0000   384.0000 </r>
       <r>     7.2819     0.0000   384.0000 </r>
       <r>     7.3664     0.0000   384.0000 </r>
       <r>     7.4510     0.0000   384.0000 </r>
       <r>     7.5355     0.0000   384.0000 </r>
       <r>     7.6200     0.0000   384.0000 </r>
       <r>     7.7046     0.0000   384.0000 </r>
       <r>     7.7891     0.0000   384.0000 </r>
       <r>     7.8736     0.0000   384.0000 </r>
       <r>     7.9582     0.0725   384.0012 </r>
       <r>     8.0427     0.5965   384.0258 </r>
       <r>     8.1272     1.6352   384.1165 </r>
       <r>     8.2118     3.1887   384.3168 </r>
       <r>     8.2963     5.2569   384.6701 </r>
       <r>     8.3808     9.2774   385.2359 </r>
       <r>     8.4654    13.1372   386.2457 </r>
       <r>     8.5499     8.3078   387.2078 </r>
       <r>     8.6344     7.6275   387.8173 </r>
       <r>     8.7190    25.3795   389.2818 </r>
       <r>     8.8035    26.9503   391.6038 </r>
       <r>     8.8881    20.9261   393.6435 </r>
       <r>     8.9726    23.3466   395.3948 </r>
       <r>     9.0571    23.4869   397.4633 </r>
       <r>     9.1417    13.8387   399.1034 </r>
       <r>     9.2262     9.1954   400.0014 </r>
       <r>     9.3107    12.7827   400.8829 </r>
       <r>     9.3953    23.1672   402.3509 </r>
       <r>     9.4798    68.4620   406.8410 </r>
       <r>     9.5643    12.3682   409.3956 </r>
       <r>     9.6489    15.7979   410.5917 </r>
       <r>     9.7334    17.3695   412.0144 </r>
       <r>     9.8179    15.9527   413.4439 </r>
       <r>     9.9025    24.1808   414.8497 </r>
       <r>     9.9870    18.9594   416.5069 </r>
       <r>    10.0715    55.0765   419.9186 </r>
       <r>    10.1561    34.6283   424.2069 </r>
       <r>    10.2406    37.6667   426.7587 </r>
       <r>    10.3251    15.3737   429.2279 </r>
       <r>    10.4097    36.4085   431.4573 </r>
       <r>    10.4942     8.0812   432.9887 </r>
       <r>    10.5787    11.4228   433.8108 </r>
       <r>    10.6633    13.7377   434.8837 </r>
       <r>    10.7478    15.3183   436.1146 </r>
       <r>    10.8323    16.5075   437.4625 </r>
       <r>    10.9169    17.3053   438.8944 </r>
       <r>    11.0014    17.7119   440.3773 </r>
       <r>    11.0859    17.7272   441.8779 </r>
       <r>    11.1705    17.3511   443.3633 </r>
       <r>    11.2550    14.4323   444.7604 </r>
       <r>    11.3395    24.6583   446.7962 </r>
       <r>    11.4241    72.3574   449.3839 </r>
       <r>    11.5086    22.4457   451.7905 </r>
       <r>    11.5931    20.5533   453.5797 </r>
       <r>    11.6777    21.4426   455.3400 </r>
       <r>    11.7622    22.1150   457.1949 </r>
       <r>    11.8467    11.6787   458.6050 </r>
       <r>    11.9313     9.6642   459.5248 </r>
       <r>    12.0158    24.4559   460.4922 </r>
       <r>    12.1003    22.6198   463.7624 </r>
       <r>    12.1849    15.6038   464.8953 </r>
       <r>    12.2694     3.9883   465.9613 </r>
       <r>    12.3539     0.0000   466.0000 </r>
       <r>    12.4385     0.0000   466.0000 </r>
       <r>    12.5230     0.0000   466.0000 </r>
       <r>    12.6076     0.0000   466.0000 </r>
       <r>    12.6921     0.0000   466.0000 </r>
       <r>    12.7766     0.0000   466.0000 </r>
       <r>    12.8612     0.0000   466.0000 </r>
       <r>    12.9457     0.0000   466.0000 </r>
       <r>    13.0302     0.0000   466.0000 </r>
       <r>    13.1148     0.0000   466.0000 </r>
       <r>    13.1993     0.0000   466.0000 </r>
       <r>    13.2838     0.0000   466.0000 </r>
       <r>    13.3684     0.0000   466.0000 </r>
       <r>    13.4529     0.0000   466.0000 </r>
      </set>
     </set>
    </array>
   </total>
  </dos>
 </calculation>
 <structure name="finalpos" >
  <crystal>
   <varray name="basis" >
    <v>       9.42496400       0.07257100       4.30697600 </v>
    <v>       2.79597900       9.00098600       4.30697700 </v>
    <v>       0.09774300       0.07257100      10.36197100 </v>
   </varray>
   <i name="volume">    871.11398866 </i>
   <varray name="rec_basis" >
    <v>       0.10670865      -0.03277513      -0.00077702 </v>
    <v>      -0.00050443       0.11162744      -0.00077703 </v>
    <v>      -0.04414402      -0.03277515       0.09715268 </v>
   </varray>
  </crystal>
  <varray name="positions" >
   <v>       0.16167398       0.40034437       0.40131325 </v>
   <v>       0.16062640       0.40013668       0.89916166 </v>
   <v>       0.15897473       0.90067733       0.39948672 </v>
   <v>       0.16152133       0.90061400       0.90142142 </v>
   <v>       0.65930937       0.39960520       0.39946113 </v>
   <v>       0.66103599       0.39860433       0.90155051 </v>
   <v>       0.66078200       0.90095791       0.40087737 </v>
   <v>       0.66020212       0.90053340       0.90042113 </v>
   <v>       0.40047066       0.39973916       0.16066744 </v>
   <v>       0.40077792       0.40113820       0.65922861 </v>
   <v>       0.40141809       0.90034360       0.16082651 </v>
   <v>       0.39956222       0.89920707       0.66095046 </v>
   <v>       0.90112113       0.40056078       0.16008765 </v>
   <v>       0.89919156       0.39915161       0.66020543 </v>
   <v>       0.90067419       0.90054504       0.16040531 </v>
   <v>       0.90107622       0.90116555       0.66064466 </v>
   <v>       0.40028899       0.15850014       0.40157542 </v>
   <v>       0.40125284       0.16101170       0.89974572 </v>
   <v>       0.39958920       0.66113739       0.40012238 </v>
   <v>       0.40082038       0.65869990       0.90166140 </v>
   <v>       0.89992694       0.16105453       0.40013469 </v>
   <v>       0.90028258       0.15905566       0.90156512 </v>
   <v>       0.89901145       0.66074842       0.40043280 </v>
   <v>       0.90226251       0.66160692       0.89965314 </v>
   <v>       0.34048189       0.09950924       0.09950652 </v>
   <v>       0.33786891       0.09849123       0.60090533 </v>
   <v>       0.33935785       0.59803110       0.10018105 </v>
   <v>       0.34043476       0.59959715       0.59913062 </v>
   <v>       0.83901207       0.09940070       0.10007022 </v>
   <v>       0.84049161       0.10033452       0.59954907 </v>
   <v>       0.84142550       0.59975970       0.09945659 </v>
   <v>       0.83832792       0.59809573       0.60005563 </v>
   <v>       0.09890849       0.10080796       0.33904250 </v>
   <v>       0.09930719       0.09937505       0.84010710 </v>
   <v>       0.09910889       0.60015894       0.33980078 </v>
   <v>       0.10089609       0.59974810       0.83828128 </v>
   <v>       0.59944996       0.09917460       0.34099557 </v>
   <v>       0.60047065       0.09864566       0.83990530 </v>
   <v>       0.59913576       0.60022886       0.33829381 </v>
   <v>       0.59918450       0.59853652       0.84070476 </v>
   <v>       0.10044746       0.33968086       0.09871622 </v>
   <v>       0.09873779       0.34049895       0.59992199 </v>
   <v>       0.10001936       0.83951353       0.10016931 </v>
   <v>       0.09937899       0.83982121       0.59978111 </v>
   <v>       0.59968298       0.33927915       0.10093504 </v>
   <v>       0.59956436       0.33896686       0.59845121 </v>
   <v>       0.60010953       0.83909668       0.09880070 </v>
   <v>       0.59962091       0.83878614       0.60035395 </v>
   <v>       0.33185700       0.00090770       0.00075686 </v>
   <v>       0.33200445       0.99869547       0.50082326 </v>
   <v>       0.33394724       0.49866572       0.99934892 </v>
   <v>       0.33211395       0.50035891       0.49980703 </v>
   <v>       0.83292647       0.00009886       0.99983543 </v>
   <v>       0.83097367       0.00058713       0.50129207 </v>
   <v>       0.83306034       0.50140529       0.99989118 </v>
   <v>       0.83255205       0.49879262       0.49915258 </v>
   <v>       0.99868644       0.00186423       0.33210722 </v>
   <v>       0.00062199       0.99884619       0.83304479 </v>
   <v>       0.00076626       0.50000597       0.33214873 </v>
   <v>       0.99887676       0.50043919       0.83250767 </v>
   <v>       0.50043907       0.00003364       0.33170812 </v>
   <v>       0.49885562       0.00054502       0.83288242 </v>
   <v>       0.49829952       0.50019435       0.33267105 </v>
   <v>       0.50114675       0.49848076       0.83291603 </v>
   <v>       0.99993680       0.33270679       0.00027032 </v>
   <v>       0.00151644       0.33201654       0.49952835 </v>
   <v>       0.00158646       0.83248507       0.00035073 </v>
   <v>       0.99863466       0.83289200       0.50046410 </v>
   <v>       0.50147744       0.33061394       0.00062835 </v>
   <v>       0.49851316       0.33247141       0.50021474 </v>
   <v>       0.49931929       0.83335207       0.99976102 </v>
   <v>       0.50098464       0.83282571       0.49904786 </v>
   <v>       0.16700495       0.00171691       0.00039988 </v>
   <v>       0.16769852       0.99981377       0.49898961 </v>
   <v>       0.16812907       0.50011229       0.99907845 </v>
   <v>       0.16555963       0.50203479       0.50083209 </v>
   <v>       0.66889857       0.99907690       0.99945352 </v>
   <v>       0.66626236       0.00011890       0.50226006 </v>
   <v>       0.66781157       0.50037953       0.00042011 </v>
   <v>       0.66776315       0.49912140       0.49864029 </v>
   <v>       0.99956067       0.00110631       0.16763190 </v>
   <v>       0.00047551       0.00051681       0.66697588 </v>
   <v>       0.00171054       0.50011150       0.16668640 </v>
   <v>       0.99808374       0.50081643       0.66751524 </v>
   <v>       0.50136662       0.99982752       0.16724919 </v>
   <v>       0.49758827       0.99952220       0.66891019 </v>
   <v>       0.49920256       0.50061860       0.16737254 </v>
   <v>       0.50146950       0.49973454       0.66617651 </v>
   <v>       0.99942115       0.16783686       0.00044747 </v>
   <v>       0.00026907       0.16835467       0.49920062 </v>
   <v>       0.00213261       0.66761205       0.99915358 </v>
   <v>       0.99785777       0.66852373       0.50061517 </v>
   <v>       0.50128820       0.16723004       0.99906922 </v>
   <v>       0.49797130       0.16752064       0.50076956 </v>
   <v>       0.49905793       0.66805525       0.99981836 </v>
   <v>       0.50028000       0.66778917       0.49827722 </v>
   <v>       0.31582710       0.31556023       0.31552950 </v>
   <v>       0.31579024       0.31616727       0.81469116 </v>
   <v>       0.31408609       0.81604223       0.31545722 </v>
   <v>       0.31540417       0.81495818       0.81608840 </v>
   <v>       0.81454215       0.31594507       0.31450460 </v>
   <v>       0.81575409       0.31392181       0.81532130 </v>
   <v>       0.81535452       0.81529494       0.31528927 </v>
   <v>       0.81701042       0.81652806       0.81495604 </v>
   <v>       0.18535004       0.18511504       0.18367453 </v>
   <v>       0.18318673       0.18495681       0.68504343 </v>
   <v>       0.18400813       0.68488441       0.18508225 </v>
   <v>       0.18505778       0.68588970       0.68367156 </v>
   <v>       0.68445204       0.18463236       0.18592577 </v>
   <v>       0.68497314       0.18460911       0.68449916 </v>
   <v>       0.68622752       0.68432645       0.18345834 </v>
   <v>       0.68366355       0.68340712       0.68517159 </v>
  </varray>
  <varray name="velocities" >
   <v>      -0.00002303       0.00003754       0.00003696 </v>
   <v>      -0.00003230      -0.00001183      -0.00000444 </v>
   <v>       0.00003325      -0.00002636      -0.00000178 </v>
   <v>      -0.00001603       0.00004353      -0.00000153 </v>
   <v>       0.00001700       0.00001931       0.00000722 </v>
   <v>      -0.00001398       0.00003067      -0.00004651 </v>
   <v>       0.00004322      -0.00002737      -0.00001503 </v>
   <v>       0.00001061       0.00001927      -0.00003586 </v>
   <v>      -0.00000479       0.00004787      -0.00006116 </v>
   <v>       0.00003090      -0.00005215       0.00004865 </v>
   <v>      -0.00002710      -0.00003365       0.00004482 </v>
   <v>       0.00001095       0.00005520      -0.00002609 </v>
   <v>      -0.00004790      -0.00000476      -0.00000616 </v>
   <v>       0.00003472       0.00000952      -0.00001430 </v>
   <v>      -0.00000977      -0.00000953       0.00001925 </v>
   <v>       0.00002580      -0.00000207      -0.00001859 </v>
   <v>      -0.00001718      -0.00001480      -0.00005313 </v>
   <v>      -0.00004544      -0.00004228       0.00001139 </v>
   <v>      -0.00004967      -0.00000803       0.00004047 </v>
   <v>       0.00004023       0.00001513      -0.00004386 </v>
   <v>      -0.00001098      -0.00003006      -0.00001178 </v>
   <v>      -0.00000910      -0.00002406      -0.00000228 </v>
   <v>       0.00001489      -0.00000841      -0.00001938 </v>
   <v>      -0.00001351      -0.00001839       0.00002448 </v>
   <v>      -0.00000035      -0.00000317       0.00004819 </v>
   <v>      -0.00000460       0.00001146      -0.00004513 </v>
   <v>      -0.00002322       0.00003205      -0.00001263 </v>
   <v>      -0.00004570      -0.00004629       0.00009117 </v>
   <v>       0.00001645      -0.00000816       0.00001404 </v>
   <v>       0.00002773      -0.00002481      -0.00003109 </v>
   <v>      -0.00001685      -0.00000292       0.00003699 </v>
   <v>       0.00003622      -0.00001225       0.00001352 </v>
   <v>       0.00000912      -0.00000401       0.00000034 </v>
   <v>       0.00001352       0.00001502       0.00001124 </v>
   <v>       0.00001853      -0.00001662       0.00000521 </v>
   <v>      -0.00000597      -0.00000548      -0.00000409 </v>
   <v>      -0.00000461      -0.00000642      -0.00001089 </v>
   <v>      -0.00003899       0.00001353       0.00000899 </v>
   <v>      -0.00000410       0.00002777      -0.00000123 </v>
   <v>       0.00003200       0.00000047       0.00000316 </v>
   <v>      -0.00002531       0.00000699       0.00001899 </v>
   <v>       0.00002722      -0.00001200       0.00002178 </v>
   <v>       0.00001073       0.00000298      -0.00004648 </v>
   <v>       0.00003651       0.00000312       0.00000562 </v>
   <v>       0.00000894      -0.00001475      -0.00000171 </v>
   <v>       0.00001474       0.00002525      -0.00000989 </v>
   <v>       0.00000656       0.00002851      -0.00002308 </v>
   <v>      -0.00000184       0.00003207       0.00002099 </v>
   <v>      -0.00003515      -0.00003487       0.00004142 </v>
   <v>       0.00002738      -0.00003466       0.00001923 </v>
   <v>       0.00000801       0.00000411      -0.00002516 </v>
   <v>       0.00004575      -0.00009079       0.00007234 </v>
   <v>      -0.00001605       0.00002346      -0.00000512 </v>
   <v>       0.00001495      -0.00002888      -0.00001972 </v>
   <v>       0.00001750      -0.00002259      -0.00006062 </v>
   <v>       0.00001303      -0.00000315       0.00000399 </v>
   <v>      -0.00000436      -0.00001040      -0.00000157 </v>
   <v>       0.00001114      -0.00001336       0.00000948 </v>
   <v>      -0.00004124      -0.00006713       0.00006449 </v>
   <v>      -0.00005789      -0.00000598       0.00002941 </v>
   <v>       0.00000005      -0.00001678      -0.00000688 </v>
   <v>      -0.00001726       0.00000647       0.00002019 </v>
   <v>       0.00002676      -0.00004052       0.00000456 </v>
   <v>       0.00000483       0.00000444       0.00001838 </v>
   <v>      -0.00004754       0.00002647       0.00001114 </v>
   <v>       0.00004706      -0.00001649      -0.00000240 </v>
   <v>      -0.00001664       0.00002909      -0.00002018 </v>
   <v>      -0.00000697      -0.00001367      -0.00000871 </v>
   <v>      -0.00003111      -0.00001399      -0.00004942 </v>
   <v>       0.00003501      -0.00006950       0.00002010 </v>
   <v>       0.00000408       0.00001597      -0.00003908 </v>
   <v>      -0.00000983       0.00000490       0.00002143 </v>
   <v>      -0.00000579       0.00000907      -0.00001124 </v>
   <v>      -0.00002832       0.00001342       0.00002142 </v>
   <v>      -0.00000576       0.00001815       0.00000114 </v>
   <v>       0.00001330      -0.00000987      -0.00002060 </v>
   <v>      -0.00003181       0.00005125      -0.00004476 </v>
   <v>      -0.00002409       0.00004926      -0.00005137 </v>
   <v>      -0.00001396       0.00007386       0.00000570 </v>
   <v>      -0.00000175       0.00003277       0.00004686 </v>
   <v>      -0.00003814       0.00001444       0.00004131 </v>
   <v>       0.00001852       0.00000038      -0.00000104 </v>
   <v>      -0.00000957      -0.00001036       0.00002700 </v>
   <v>      -0.00000701       0.00000810       0.00002845 </v>
   <v>       0.00004322       0.00002324      -0.00003413 </v>
   <v>      -0.00001083       0.00006833      -0.00008304 </v>
   <v>      -0.00002221       0.00006811      -0.00003268 </v>
   <v>       0.00001331       0.00002644      -0.00003958 </v>
   <v>       0.00006340      -0.00001864      -0.00003016 </v>
   <v>       0.00000764      -0.00000419       0.00000014 </v>
   <v>      -0.00001679      -0.00000065       0.00001474 </v>
   <v>      -0.00000790      -0.00000071       0.00002698 </v>
   <v>       0.00002656       0.00003538      -0.00000373 </v>
   <v>       0.00001064       0.00001446      -0.00002520 </v>
   <v>      -0.00000091       0.00000069       0.00000256 </v>
   <v>      -0.00001310       0.00000709       0.00002424 </v>
   <v>       0.00005343      -0.00003550       0.00001164 </v>
   <v>       0.00003064      -0.00000436       0.00002797 </v>
   <v>       0.00003410       0.00000818       0.00002273 </v>
   <v>       0.00006347       0.00003630       0.00004111 </v>
   <v>      -0.00000982       0.00001883       0.00002184 </v>
   <v>       0.00003669      -0.00001572       0.00005336 </v>
   <v>       0.00003468       0.00003334       0.00001042 </v>
   <v>       0.00000023       0.00003536       0.00001108 </v>
   <v>      -0.00002290      -0.00004375       0.00001154 </v>
   <v>      -0.00001520      -0.00000768      -0.00003237 </v>
   <v>      -0.00003672      -0.00001259      -0.00007058 </v>
   <v>      -0.00003865      -0.00008369      -0.00000639 </v>
   <v>      -0.00002436       0.00000264      -0.00001079 </v>
   <v>       0.00000068      -0.00002830      -0.00001491 </v>
   <v>      -0.00005975      -0.00001251      -0.00000224 </v>
   <v>      -0.00000842       0.00001149      -0.00002549 </v>
  </varray>
 </structure>
</modeling>
