unknown system                          
            1
     9.424964    0.072571    4.306976
     2.795979    9.000986    4.306977
     0.097743    0.072571   10.361971
   B    C 
    96    16
Direct configuration=     1
   0.16039500  0.40051500  0.40051500
   0.16039500  0.40051500  0.90051500
   0.16039500  0.90051500  0.40051500
   0.16039500  0.90051500  0.90051500
   0.66039500  0.40051500  0.40051500
   0.66039500  0.40051500  0.90051500
   0.66039500  0.90051500  0.40051500
   0.66039500  0.90051500  0.90051500
   0.40051500  0.40051500  0.16039500
   0.40051500  0.40051500  0.66039500
   0.40051500  0.90051500  0.16039500
   0.40051500  0.90051500  0.66039500
   0.90051500  0.40051500  0.16039500
   0.90051500  0.40051500  0.66039500
   0.90051500  0.90051500  0.16039500
   0.90051500  0.90051500  0.66039500
   0.40051500  0.16039500  0.40051500
   0.40051500  0.16039500  0.90051500
   0.40051500  0.66039500  0.40051500
   0.40051500  0.66039500  0.90051500
   0.90051500  0.16039500  0.40051500
   0.90051500  0.16039500  0.90051500
   0.90051500  0.66039500  0.40051500
   0.90051500  0.66039500  0.90051500
   0.33960500  0.09948500  0.09948500
   0.33960500  0.09948500  0.59948500
   0.33960500  0.59948500  0.09948500
   0.33960500  0.59948500  0.59948500
   0.83960500  0.09948500  0.09948500
   0.83960500  0.09948500  0.59948500
   0.83960500  0.59948500  0.09948500
   0.83960500  0.59948500  0.59948500
   0.09948500  0.09948500  0.33960500
   0.09948500  0.09948500  0.83960500
   0.09948500  0.59948500  0.33960500
   0.09948500  0.59948500  0.83960500
   0.59948500  0.09948500  0.33960500
   0.59948500  0.09948500  0.83960500
   0.59948500  0.59948500  0.33960500
   0.59948500  0.59948500  0.83960500
   0.09948500  0.33960500  0.09948500
   0.09948500  0.33960500  0.59948500
   0.09948500  0.83960500  0.09948500
   0.09948500  0.83960500  0.59948500
   0.59948500  0.33960500  0.09948500
   0.59948500  0.33960500  0.59948500
   0.59948500  0.83960500  0.09948500
   0.59948500  0.83960500  0.59948500
   0.33229300  0.00011500  0.00011500
   0.33229300  0.00011500  0.50011500
   0.33229300  0.50011500  0.00011500
   0.33229300  0.50011500  0.50011500
   0.83229300  0.00011500  0.00011500
   0.83229300  0.00011500  0.50011500
   0.83229300  0.50011500  0.00011500
   0.83229300  0.50011500  0.50011500
   0.00011500  0.00011500  0.33229300
   0.00011500  0.00011500  0.83229300
   0.00011500  0.50011500  0.33229300
   0.00011500  0.50011500  0.83229300
   0.50011500  0.00011500  0.33229300
   0.50011500  0.00011500  0.83229300
   0.50011500  0.50011500  0.33229300
   0.50011500  0.50011500  0.83229300
   0.00011500  0.33229300  0.00011500
   0.00011500  0.33229300  0.50011500
   0.00011500  0.83229300  0.00011500
   0.00011500  0.83229300  0.50011500
   0.50011500  0.33229300  0.00011500
   0.50011500  0.33229300  0.50011500
   0.50011500  0.83229300  0.00011500
   0.50011500  0.83229300  0.50011500
   0.16770700  0.99988500  0.99988500
   0.16770700  0.99988500  0.49988500
   0.16770700  0.49988500  0.99988500
   0.16770700  0.49988500  0.49988500
   0.66770700  0.99988500  0.99988500
   0.66770700  0.99988500  0.49988500
   0.66770700  0.49988500  0.99988500
   0.66770700  0.49988500  0.49988500
   0.99988500  0.99988500  0.16770700
   0.99988500  0.99988500  0.66770700
   0.99988500  0.49988500  0.16770700
   0.99988500  0.49988500  0.66770700
   0.49988500  0.99988500  0.16770700
   0.49988500  0.99988500  0.66770700
   0.49988500  0.49988500  0.16770700
   0.49988500  0.49988500  0.66770700
   0.99988500  0.16770700  0.99988500
   0.99988500  0.16770700  0.49988500
   0.99988500  0.66770700  0.99988500
   0.99988500  0.66770700  0.49988500
   0.49988500  0.16770700  0.99988500
   0.49988500  0.16770700  0.49988500
   0.49988500  0.66770700  0.99988500
   0.49988500  0.66770700  0.49988500
   0.31539700  0.31539700  0.31539700
   0.31539700  0.31539700  0.81539700
   0.31539700  0.81539700  0.31539700
   0.31539700  0.81539700  0.81539700
   0.81539700  0.31539700  0.31539700
   0.81539700  0.31539700  0.81539700
   0.81539700  0.81539700  0.31539700
   0.81539700  0.81539700  0.81539700
   0.18460300  0.18460300  0.18460300
   0.18460300  0.18460300  0.68460300
   0.18460300  0.68460300  0.18460300
   0.18460300  0.68460300  0.68460300
   0.68460300  0.18460300  0.18460300
   0.68460300  0.18460300  0.68460300
   0.68460300  0.68460300  0.18460300
   0.68460300  0.68460300  0.68460300
Direct configuration=     2
   0.16036602  0.40049637  0.40053807
   0.16037661  0.40052708  0.90051957
   0.16034287  0.90051958  0.40054675
   0.16039765  0.90050649  0.90050789
   0.66036371  0.40048899  0.40053046
   0.66038558  0.40051351  0.90048594
   0.66036324  0.90050785  0.40055601
   0.66041298  0.90046185  0.90055066
   0.40049780  0.40052555  0.16040608
   0.40047290  0.40055333  0.66035589
   0.40051304  0.90056482  0.16029371
   0.40044368  0.90054508  0.66038011
   0.90050699  0.40056280  0.16037900
   0.90053011  0.40056930  0.66034540
   0.90057029  0.90049911  0.16039592
   0.90056711  0.90049810  0.66037369
   0.40046750  0.16049861  0.40048232
   0.40050235  0.16038477  0.90054584
   0.40055642  0.66038491  0.40052424
   0.40050593  0.66042206  0.90046007
   0.90054483  0.16041887  0.40046919
   0.90043512  0.16040798  0.90052060
   0.90057349  0.66033358  0.40048487
   0.90050099  0.66036215  0.90052222
   0.33965930  0.09949898  0.09948550
   0.33963764  0.09943810  0.59950849
   0.33958555  0.59946503  0.09951394
   0.33962035  0.59949782  0.59947476
   0.83961102  0.09943380  0.09949195
   0.83959530  0.09953472  0.59950402
   0.83966416  0.59943141  0.09950136
   0.83960758  0.59950104  0.59946447
   0.09947543  0.09947572  0.33959414
   0.09952772  0.09950140  0.83965425
   0.09945486  0.59952004  0.33962523
   0.09949537  0.59949238  0.83961873
   0.59947621  0.09947840  0.33965397
   0.59948912  0.09954709  0.83961090
   0.59946953  0.59949098  0.33957235
   0.59946848  0.59952672  0.83962281
   0.09946423  0.33964442  0.09947455
   0.09945629  0.33958138  0.59948821
   0.09946747  0.83961982  0.09946746
   0.09944411  0.83968266  0.59944218
   0.59947296  0.33958140  0.09947466
   0.59947548  0.33962526  0.59941439
   0.59941155  0.83961274  0.09953306
   0.59945372  0.83959780  0.59949964
   0.33229199  0.00012986  0.00007864
   0.33229921  0.00009864  0.50008114
   0.33230792  0.50007311  0.00020237
   0.33222323  0.50017667  0.50014583
   0.83228734  0.00008680  0.00010860
   0.83227428  0.00010436  0.50007970
   0.83238023  0.50009368  0.00010226
   0.83233759  0.50013295  0.50006205
   0.00008329  0.00011347  0.33235105
   0.00012365  0.00011127  0.83227923
   0.00008543  0.50013522  0.33229781
   0.00012353  0.50016369  0.83230506
   0.50010634  0.00012730  0.33231968
   0.50011823  0.00006543  0.83225631
   0.50012899  0.50010856  0.33224659
   0.50011228  0.50008141  0.83226228
   0.00009450  0.33234094  0.00011095
   0.00010950  0.33232969  0.50008962
   0.00013766  0.83225880  0.00016488
   0.00008431  0.83233611  0.50010865
   0.50012873  0.33235346  0.00013416
   0.50007172  0.33234355  0.50012902
   0.50014032  0.83222405  0.00016329
   0.50010625  0.83226268  0.50011789
   0.16772040  0.99987305  0.99985599
   0.16774136  0.99992974  0.49990294
   0.16776645  0.49985520  0.99987391
   0.16774333  0.49985561  0.49986960
   0.66770879  0.99989894  0.99989855
   0.66768476  0.99990873  0.49987660
   0.66768066  0.49991459  0.99991626
   0.66771121  0.49984965  0.49988637
   0.99981137  0.99988923  0.16774978
   0.99993443  0.99985555  0.66771068
   0.99992500  0.49987087  0.16765576
   0.99983644  0.49986634  0.66772082
   0.49988910  0.99988401  0.16772273
   0.49991070  0.99987561  0.66774344
   0.49985288  0.49988918  0.16770051
   0.49985387  0.49989092  0.66775113
   0.99992191  0.16773743  0.99984268
   0.99993707  0.16768147  0.49987388
   0.99991037  0.66771635  0.99987545
   0.99979700  0.66769832  0.49992358
   0.49993459  0.16761488  0.99992861
   0.49989637  0.16765476  0.49994565
   0.49987491  0.66766726  0.99990442
   0.49996342  0.66767471  0.49983706
   0.31539545  0.31536089  0.31542602
   0.31542976  0.31541746  0.81534613
   0.31543270  0.81543331  0.31531222
   0.31540984  0.81530290  0.81542112
   0.81542460  0.31542618  0.31537336
   0.81540407  0.31540386  0.81540450
   0.81539171  0.81540946  0.31538492
   0.81532994  0.81537156  0.81542647
   0.18461383  0.18459748  0.18461274
   0.18460147  0.18460039  0.68460019
   0.18466534  0.68459596  0.18461428
   0.18465021  0.68458479  0.68457395
   0.68462139  0.18456887  0.18465545
   0.68456927  0.18463386  0.68460156
   0.68461491  0.68461343  0.18460012
   0.68458635  0.68455719  0.68462090
Direct configuration=     3
   0.16033654  0.40047734  0.40056061
   0.16035787  0.40053874  0.90052329
   0.16029015  0.90052410  0.40057784
   0.16039967  0.90049747  0.90050037
   0.66033195  0.40046283  0.40054516
   0.66037600  0.40051139  0.90045629
   0.66033104  0.90050024  0.40059649
   0.66043008  0.90040883  0.90058566
   0.40047993  0.40053525  0.16041733
   0.40043040  0.40059133  0.66031627
   0.40051035  0.90061426  0.16019242
   0.40037216  0.90057444  0.66036490
   0.90049865  0.40061021  0.16036250
   0.90054464  0.40062282  0.66029573
   0.90062497  0.90048292  0.16039645
   0.90061857  0.90048141  0.66035174
   0.40041995  0.16060061  0.40044980
   0.40048908  0.16037449  0.90057565
   0.40059695  0.66037499  0.40053255
   0.40049625  0.66044831  0.90040486
   0.90057418  0.16044195  0.40042330
   0.90035532  0.16042004  0.90052578
   0.90063116  0.66027205  0.40045432
   0.90048645  0.66032929  0.90052876
   0.33971385  0.09951323  0.09948664
   0.33967064  0.09939183  0.59953228
   0.33956648  0.59944588  0.09954343
   0.33963641  0.59951094  0.59946498
   0.83961763  0.09938327  0.09949936
   0.83958686  0.09958415  0.59952320
   0.83972365  0.59937860  0.09951836
   0.83961071  0.59951745  0.59944438
   0.09946615  0.09946634  0.33958428
   0.09957051  0.09951808  0.83970379
   0.09942534  0.59955538  0.33964584
   0.09950634  0.59950008  0.83963277
   0.59946789  0.09947228  0.33970334
   0.59949373  0.09960899  0.83961735
   0.59945478  0.59949706  0.33954032
   0.59945269  0.59956880  0.83964063
   0.09944427  0.33968367  0.09946488
   0.09942806  0.33955854  0.59949171
   0.09945067  0.83963510  0.09945056
   0.09940402  0.83976034  0.59940003
   0.59946187  0.33955798  0.09946521
   0.59946654  0.33964562  0.59934469
   0.59933930  0.83962051  0.09958174
   0.59942297  0.83959117  0.59951472
   0.33229125  0.00014504  0.00004290
   0.33230491  0.00008290  0.50004784
   0.33232341  0.50003154  0.00028968
   0.33215374  0.50023878  0.50017692
   0.83228219  0.00005882  0.00010265
   0.83225516  0.00009442  0.50004515
   0.83246778  0.50007266  0.00008989
   0.83238226  0.50015119  0.50000945
   0.00005235  0.00011272  0.33240792
   0.00013298  0.00010828  0.83226450
   0.00005644  0.50015593  0.33230191
   0.00013261  0.50021292  0.83231619
   0.50009825  0.00013998  0.33234582
   0.50012226  0.00001654  0.83221947
   0.50014334  0.50010264  0.33220072
   0.50011001  0.50004839  0.83223209
   0.00007446  0.33238883  0.00010749
   0.00010448  0.33236544  0.50006478
   0.00016051  0.83222502  0.00021501
   0.00005413  0.83237834  0.50010292
   0.50014258  0.33241406  0.00015348
   0.50002906  0.33239395  0.50014336
   0.50016581  0.83215614  0.00021169
   0.50009792  0.83223297  0.50012104
   0.16773336  0.99986094  0.99982671
   0.16777590  0.99997384  0.49992016
   0.16782492  0.49982527  0.99986253
   0.16777897  0.49982594  0.49985405
   0.66771034  0.99991238  0.99991146
   0.66766322  0.99993183  0.49986780
   0.66765390  0.49994385  0.99994718
   0.66771550  0.49981389  0.49988724
   0.99973736  0.99989278  0.16779357
   0.99998293  0.99982552  0.66771515
   0.99996442  0.49985615  0.16760550
   0.99978769  0.49984721  0.66773519
   0.49989251  0.99988247  0.16773909
   0.49993573  0.99986575  0.66777995
   0.49982048  0.49989291  0.16769380
   0.49982237  0.49989633  0.66779456
   0.99995834  0.16776752  0.99980005
   0.99998842  0.16765683  0.49986218
   0.99993535  0.66772546  0.99986529
   0.99970884  0.66769056  0.49996153
   0.49998385  0.16752257  0.99997180
   0.49990718  0.16760246  0.50000591
   0.49986460  0.66762692  0.99992358
   0.50004111  0.66764229  0.49978885
   0.31539362  0.31532547  0.31545471
   0.31546243  0.31543760  0.81529583
   0.31546828  0.81546943  0.31522798
   0.31542256  0.81520959  0.81544481
   0.81545235  0.31545506  0.31534997
   0.81541121  0.31541108  0.81541157
   0.81538656  0.81542175  0.31537303
   0.81526358  0.81534594  0.81545570
   0.18462443  0.18459230  0.18462225
   0.18459992  0.18459765  0.68459745
   0.18472709  0.68458894  0.18462576
   0.18469668  0.68456722  0.68454485
   0.68463953  0.18453474  0.18470776
   0.68453552  0.18466483  0.68459997
   0.68462667  0.68462401  0.18459699
   0.68456966  0.68451159  0.68463867
Direct configuration=     4
   0.16030719  0.40045788  0.40058225
   0.16033929  0.40054996  0.90052610
   0.16023808  0.90052815  0.40060760
   0.16040149  0.90048776  0.90049244
   0.66029986  0.40043671  0.40055884
   0.66036577  0.40050911  0.90042656
   0.66029872  0.90049205  0.40063621
   0.66044572  0.90035641  0.90062023
   0.40046186  0.40054424  0.16042827
   0.40038793  0.40062909  0.66027595
   0.40050712  0.90066323  0.16009114
   0.40030085  0.90060273  0.66034953
   0.90049001  0.40065695  0.16034551
   0.90055813  0.40067502  0.66024670
   0.90067851  0.90046619  0.16039681
   0.90066851  0.90046458  0.66033003
   0.40037294  0.16070001  0.40041796
   0.40047570  0.16036391  0.90060444
   0.40063657  0.66036535  0.40053965
   0.40048661  0.66047250  0.90035023
   0.90060254  0.16046471  0.40037716
   0.90027592  0.16043110  0.90053046
   0.90068721  0.66021130  0.40042296
   0.90047135  0.66029659  0.90053458
   0.33976860  0.09952763  0.09948819
   0.33970362  0.09934656  0.59955640
   0.33954846  0.59942724  0.09957288
   0.33965334  0.59952434  0.59945553
   0.83962439  0.09933373  0.09950725
   0.83957914  0.09963342  0.59954271
   0.83978297  0.59932689  0.09953583
   0.83961383  0.59953428  0.59942495
   0.09945759  0.09945726  0.33957502
   0.09961339  0.09953528  0.83975318
   0.09939696  0.59959105  0.33966644
   0.09951811  0.59950829  0.83964695
   0.59945992  0.09946673  0.33975305
   0.59949842  0.09967019  0.83962487
   0.59944060  0.59950289  0.33950927
   0.59943726  0.59961059  0.83965912
   0.09942542  0.33972242  0.09945613
   0.09940079  0.33953629  0.59949577
   0.09943507  0.83965039  0.09943464
   0.09936556  0.83983686  0.59935928
   0.59945144  0.33953528  0.09945643
   0.59945789  0.33966623  0.59927619
   0.59926828  0.83962857  0.09963061
   0.59939269  0.83958503  0.59953033
   0.33229042  0.00016075  0.00000779
   0.33231086  0.00006783  0.50001507
   0.33233849  0.49999067  0.00037682
   0.33208476  0.50030118  0.50020820
   0.83227691  0.00003135  0.00009728
   0.83223594  0.00008532  0.50001152
   0.83255377  0.50005237  0.00007823
   0.83242632  0.50016960  0.49995752
   0.00002200  0.00011244  0.33246441
   0.00014278  0.00010568  0.83225029
   0.00002826  0.50017670  0.33230563
   0.00014222  0.50026220  0.83232694
   0.50009067  0.00015322  0.33237091
   0.50012707  0.99996862  0.83218278
   0.50015805  0.50009752  0.33215463
   0.50010832  0.50001626  0.83220202
   0.00005501  0.33243697  0.00010430
   0.00009964  0.33240161  0.50004012
   0.00018359  0.83219213  0.00026492
   0.00002418  0.83242082  0.50009746
   0.50015667  0.33247325  0.00017311
   0.49998689  0.33244388  0.50015805
   0.50019164  0.83208838  0.00026025
   0.50008991  0.83220385  0.50012458
   0.16774663  0.99984839  0.99979724
   0.16781010  0.00001719  0.49993649
   0.16788358  0.49979495  0.99985060
   0.16781400  0.49979608  0.49983825
   0.66771198  0.99992498  0.99992371
   0.66764177  0.99995425  0.49985880
   0.66762785  0.49997239  0.99997745
   0.66772002  0.49977789  0.49988740
   0.99966348  0.99989604  0.16783691
   0.00003054  0.99979545  0.66771920
   0.00000328  0.49984128  0.16755572
   0.99973890  0.49982797  0.66774966
   0.49989537  0.99988022  0.16775624
   0.49996003  0.99985515  0.66781658
   0.49978785  0.49989598  0.16768759
   0.49979047  0.49990090  0.66783785
   0.99999396  0.16779686  0.99975757
   0.00003912  0.16763191  0.49985025
   0.99995990  0.66773377  0.99985485
   0.99962111  0.66768234  0.49999911
   0.50003246  0.16743183  0.00001422
   0.49991740  0.16755066  0.50006551
   0.49985388  0.66758706  0.99994227
   0.50011802  0.66760980  0.49974039
   0.31539112  0.31529140  0.31548285
   0.31549456  0.31545744  0.81524648
   0.31550334  0.81550524  0.31514480
   0.31543472  0.81511786  0.81546777
   0.81547988  0.31548374  0.31532702
   0.81541829  0.31541889  0.81541798
   0.81538152  0.81543374  0.31536158
   0.81519834  0.81532017  0.81548448
   0.18463493  0.18458757  0.18463125
   0.18459851  0.18459458  0.68459481
   0.18478788  0.68458214  0.18463748
   0.18474213  0.68455052  0.68451570
   0.68465744  0.18450072  0.18475967
   0.68450196  0.18469590  0.68459808
   0.68463847  0.68463456  0.18459355
   0.68455301  0.68446646  0.68465609
Direct configuration=     5
   0.16027787  0.40043810  0.40060294
   0.16032100  0.40056070  0.90052790
   0.16018679  0.90053186  0.40063586
   0.16040283  0.90047743  0.90048427
   0.66026795  0.40041053  0.40057114
   0.66035529  0.40050661  0.90039674
   0.66026663  0.90048321  0.40067498
   0.66045983  0.90030481  0.90065423
   0.40044332  0.40055211  0.16043943
   0.40034541  0.40066633  0.66023527
   0.40050297  0.90071145  0.15999051
   0.40022982  0.90062955  0.66033434
   0.90048140  0.40070296  0.16032787
   0.90057061  0.40072572  0.66019846
   0.90073087  0.90044918  0.16039679
   0.90071679  0.90044793  0.66030855
   0.40032669  0.16079607  0.40038721
   0.40046210  0.16035339  0.90063181
   0.40067478  0.66035669  0.40054505
   0.40047688  0.66049444  0.90029641
   0.90063011  0.16048670  0.40033129
   0.90019762  0.16044062  0.90053491
   0.90074147  0.66015164  0.40039092
   0.90045590  0.66026410  0.90053979
   0.33982305  0.09954231  0.09949023
   0.33973608  0.09930254  0.59958083
   0.33953128  0.59940937  0.09960229
   0.33967093  0.59953819  0.59944648
   0.83963149  0.09928530  0.09951551
   0.83957269  0.09968205  0.59956218
   0.83984204  0.59927665  0.09955367
   0.83961705  0.59955140  0.59940617
   0.09944953  0.09944823  0.33956677
   0.09965591  0.09955274  0.83980251
   0.09936975  0.59962678  0.33968710
   0.09953061  0.59951699  0.83966131
   0.59945247  0.09946193  0.33980280
   0.59950330  0.09973043  0.83963337
   0.59942740  0.59950853  0.33947900
   0.59942253  0.59965205  0.83967791
   0.09940771  0.33976051  0.09944826
   0.09937433  0.33951491  0.59950015
   0.09942078  0.83966572  0.09941968
   0.09932885  0.83991196  0.59931995
   0.59944214  0.33951289  0.09944870
   0.59944970  0.33968668  0.59920938
   0.59919915  0.83963657  0.09967968
   0.59936312  0.83957907  0.59954668
   0.33228919  0.00017699  0.99997342
   0.33231686  0.00005364  0.49998300
   0.33235331  0.49995060  0.00046349
   0.33201632  0.50036386  0.50023948
   0.83227165  0.00000431  0.00009253
   0.83221672  0.00007727  0.49997901
   0.83263832  0.50003281  0.00006722
   0.83246969  0.50018804  0.49990623
   0.99999238  0.00011294  0.33251933
   0.00015319  0.00010380  0.83223581
   0.00000110  0.50019769  0.33230823
   0.00015234  0.50031163  0.83233651
   0.50008362  0.00016680  0.33239540
   0.50013277  0.99992162  0.83214724
   0.50017288  0.50009301  0.33210940
   0.50010711  0.49998490  0.83217320
   0.00003627  0.33248446  0.00010162
   0.00009510  0.33243704  0.50001595
   0.00020688  0.83215965  0.00031466
   0.99999450  0.83246249  0.50009257
   0.50017088  0.33253130  0.00019274
   0.49994525  0.33249365  0.50017276
   0.50021761  0.83202190  0.00030852
   0.50008218  0.83217617  0.50012824
   0.16776010  0.99983552  0.99976773
   0.16784362  0.00005966  0.49995180
   0.16794170  0.49976443  0.99983825
   0.16784793  0.49976616  0.49982241
   0.66771402  0.99993657  0.99993518
   0.66762080  0.99997576  0.49984961
   0.66760252  0.50000008  0.00000700
   0.66772510  0.49974172  0.49988682
   0.99958987  0.99989877  0.16788063
   0.00007699  0.99976523  0.66772365
   0.00004157  0.49982610  0.16750725
   0.99969024  0.49980846  0.66776484
   0.49989769  0.99987746  0.16777367
   0.49998351  0.99984394  0.66785243
   0.49975522  0.49989859  0.16768107
   0.49975840  0.49990482  0.66787974
   0.00002851  0.16782600  0.99971515
   0.00008891  0.16760780  0.49983786
   0.99998397  0.66774191  0.99984386
   0.99953400  0.66767482  0.50003593
   0.50008045  0.16734232  0.00005602
   0.49992695  0.16749905  0.50012458
   0.49984280  0.66754702  0.99996070
   0.50019399  0.66757665  0.49969206
   0.31538760  0.31525926  0.31551019
   0.31552594  0.31547687  0.81519842
   0.31553766  0.81554063  0.31506309
   0.31544598  0.81502839  0.81548971
   0.81550699  0.31551216  0.31530464
   0.81542534  0.31542740  0.81542342
   0.81537669  0.81544521  0.31535068
   0.81513463  0.81529427  0.81551252
   0.18464535  0.18458340  0.18463956
   0.18459729  0.18459112  0.68459241
   0.18484720  0.68457582  0.18464953
   0.18478620  0.68453507  0.68448651
   0.68467514  0.18446686  0.18481095
   0.68446870  0.18472711  0.68459581
   0.68465029  0.68464504  0.18458974
   0.68453642  0.68442210  0.68467293
Direct configuration=     6
   0.16024875  0.40041809  0.40062249
   0.16030320  0.40057095  0.90052864
   0.16013688  0.90053505  0.40066222
   0.16040380  0.90046634  0.90047586
   0.66023637  0.40038440  0.40058179
   0.66034441  0.40050415  0.90036708
   0.66023506  0.90047356  0.40071261
   0.66047213  0.90025432  0.90068765
   0.40042441  0.40055880  0.16045081
   0.40030301  0.40070304  0.66019423
   0.40049779  0.90075871  0.15989090
   0.40015923  0.90065456  0.66031959
   0.90047301  0.40074815  0.16030951
   0.90058193  0.40077466  0.66015139
   0.90078177  0.90043182  0.16039652
   0.90076288  0.90043146  0.66028774
   0.40028159  0.16088804  0.40035800
   0.40044845  0.16034309  0.90065757
   0.40071140  0.66034939  0.40054844
   0.40046736  0.66051344  0.90024389
   0.90065671  0.16050806  0.40028580
   0.90012083  0.16044846  0.90053917
   0.90079346  0.66009362  0.40035811
   0.90044023  0.66023193  0.90054444
   0.33987693  0.09955737  0.09949275
   0.33976770  0.09926002  0.59960559
   0.33951531  0.59939216  0.09963139
   0.33968927  0.59955257  0.59943777
   0.83963881  0.09923823  0.09952412
   0.83956745  0.09972994  0.59958161
   0.83990062  0.59922817  0.09957176
   0.83962027  0.59956872  0.59938808
   0.09944211  0.09943936  0.33955941
   0.09969787  0.09957051  0.83985156
   0.09934395  0.59966238  0.33970775
   0.09954389  0.59952625  0.83967571
   0.59944553  0.09945803  0.33985247
   0.59950828  0.09978942  0.83964292
   0.59941528  0.59951377  0.33944959
   0.59940841  0.59969278  0.83969722
   0.09939133  0.33979767  0.09944130
   0.09934880  0.33949447  0.59950482
   0.09940803  0.83968084  0.09940584
   0.09929438  0.83998485  0.59928240
   0.59943403  0.33949092  0.09944203
   0.59944187  0.33970684  0.59914457
   0.59913225  0.83964432  0.09972883
   0.59933429  0.83957311  0.59956386
   0.33228760  0.00019379  0.99993973
   0.33232342  0.00004041  0.49995161
   0.33236756  0.49991151  0.00054951
   0.33194856  0.50042670  0.50027064
   0.83226652  0.99997775  0.00008838
   0.83219791  0.00007037  0.49994770
   0.83272068  0.50001407  0.00005695
   0.83251203  0.50020637  0.49985572
   0.99996340  0.00011424  0.33257258
   0.00016419  0.00010263  0.83222148
   0.99997519  0.50021880  0.33230935
   0.00016301  0.50036106  0.83234461
   0.50007703  0.00018070  0.33241928
   0.50013937  0.99987566  0.83211340
   0.50018776  0.50008918  0.33206497
   0.50010646  0.49995447  0.83214576
   0.00001839  0.33253105  0.00009943
   0.00009078  0.33247176  0.49999227
   0.00023041  0.83212750  0.00036405
   0.99996503  0.83250323  0.50008824
   0.50018520  0.33258750  0.00021233
   0.49990410  0.33254316  0.50018742
   0.50024375  0.83195656  0.00035638
   0.50007470  0.83215011  0.50013201
   0.16777377  0.99982234  0.99973836
   0.16787586  0.00010121  0.49996602
   0.16799943  0.49973369  0.99982544
   0.16788054  0.49973631  0.49980659
   0.66771646  0.99994699  0.99994588
   0.66759995  0.99999630  0.49984041
   0.66757837  0.50002673  0.00003568
   0.66773093  0.49970552  0.49988539
   0.99951686  0.99990104  0.16792439
   0.00012220  0.99973504  0.66772820
   0.00007925  0.49981075  0.16746040
   0.99964182  0.49978874  0.66778096
   0.49989958  0.99987414  0.16779125
   0.50000608  0.99983206  0.66788711
   0.49972267  0.49990068  0.16767440
   0.49972621  0.49990799  0.66792013
   0.00006169  0.16785508  0.99967291
   0.00013773  0.16758460  0.49982502
   0.00000756  0.66774988  0.99983233
   0.99944779  0.66766796  0.50007195
   0.50012767  0.16725490  0.00009705
   0.49993573  0.16744788  0.50018304
   0.49983130  0.66750706  0.99997882
   0.50026895  0.66754272  0.49964397
   0.31538275  0.31522962  0.31553653
   0.31555629  0.31549585  0.81515190
   0.31557099  0.81557550  0.31498321
   0.31545603  0.81494176  0.81551036
   0.81553349  0.31554032  0.31528299
   0.81543233  0.31543677  0.81542760
   0.81537214  0.81545596  0.31534047
   0.81507290  0.81526819  0.81553960
   0.18465568  0.18457991  0.18464704
   0.18459629  0.18458721  0.68459034
   0.18490462  0.68457023  0.18466199
   0.18482855  0.68452121  0.68445731
   0.68469258  0.18443325  0.18486141
   0.68443583  0.18475853  0.68459308
   0.68466220  0.68465539  0.18458553
   0.68451990  0.68437873  0.68468905
Direct configuration=     7
   0.16022009  0.40039783  0.40064072
   0.16028634  0.40058057  0.90052810
   0.16008896  0.90053756  0.40068633
   0.16040460  0.90045441  0.90046717
   0.66020512  0.40035844  0.40059064
   0.66033296  0.40050191  0.90033776
   0.66020399  0.90046312  0.40074905
   0.66048216  0.90020529  0.90072055
   0.40040533  0.40056429  0.16046241
   0.40026102  0.40073929  0.66015273
   0.40049163  0.90080503  0.15979249
   0.40008945  0.90067763  0.66030527
   0.90046479  0.40079224  0.16029070
   0.90059176  0.40082143  0.66010600
   0.90083083  0.90041401  0.16039626
   0.90080625  0.90041508  0.66026810
   0.40023816  0.16097500  0.40033093
   0.40043504  0.16033291  0.90068167
   0.40074638  0.66034361  0.40054966
   0.40045838  0.66052880  0.90019320
   0.90068211  0.16052890  0.40024079
   0.90004580  0.16045457  0.90054316
   0.90084263  0.66003791  0.40032433
   0.90042423  0.66020041  0.90054837
   0.33993023  0.09957279  0.09949565
   0.33979842  0.09921915  0.59963057
   0.33950088  0.59937558  0.09965998
   0.33970859  0.59956748  0.59942923
   0.83964610  0.09919277  0.09953316
   0.83956339  0.09977699  0.59960092
   0.83995832  0.59918190  0.09959016
   0.83962320  0.59958627  0.59937080
   0.09943553  0.09943078  0.33955276
   0.09973928  0.09958864  0.83989998
   0.09931995  0.59969786  0.33972808
   0.09955821  0.59953627  0.83968976
   0.59943893  0.09945497  0.33990211
   0.59951309  0.09984674  0.83965378
   0.59940421  0.59951839  0.33942121
   0.59939478  0.59973242  0.83971721
   0.09937664  0.33983343  0.09943545
   0.09932444  0.33947483  0.59950985
   0.09939727  0.83969535  0.09939341
   0.09926266  0.84005483  0.59924697
   0.59942707  0.33946946  0.09943646
   0.59943414  0.33972681  0.59908190
   0.59906771  0.83965191  0.09977782
   0.59930608  0.83956720  0.59958182
   0.33228586  0.00021114  0.99990666
   0.33233084  0.00002821  0.49992087
   0.33238136  0.49987339  0.00063460
   0.33188187  0.50048966  0.50030148
   0.83226156  0.99995163  0.00008488
   0.83217948  0.00006480  0.49991773
   0.83280036  0.49999624  0.00004747
   0.83255310  0.50022451  0.49980603
   0.99993502  0.00011619  0.33262434
   0.00017576  0.00010206  0.83220778
   0.99995069  0.50023978  0.33230921
   0.00017422  0.50041025  0.83235148
   0.50007096  0.00019513  0.33244187
   0.50014703  0.99983106  0.83208108
   0.50020261  0.50008629  0.33202092
   0.50010643  0.49992524  0.83211939
   0.00000138  0.33257701  0.00009753
   0.00008663  0.33250613  0.49996892
   0.00025411  0.83209617  0.00041280
   0.99993566  0.83254339  0.50008431
   0.50019965  0.33264087  0.00023202
   0.49986347  0.33259171  0.50020210
   0.50027003  0.83189205  0.00040385
   0.50006750  0.83212538  0.50013606
   0.16778767  0.99980884  0.99970923
   0.16790661  0.00014176  0.49997905
   0.16805677  0.49970277  0.99981217
   0.16791156  0.49970658  0.49979087
   0.66771908  0.99995614  0.99995584
   0.66757908  0.00001579  0.49983138
   0.66755541  0.50005228  0.00006346
   0.66773740  0.49966938  0.49988309
   0.99944470  0.99990302  0.16796775
   0.00016610  0.99970519  0.66773239
   0.00011638  0.49979545  0.16741495
   0.99959381  0.49976904  0.66779766
   0.49990103  0.99987006  0.16780959
   0.50002762  0.99981920  0.66792093
   0.49969022  0.49990202  0.16766817
   0.49969394  0.49991014  0.66795926
   0.00009334  0.16788367  0.99963115
   0.00018551  0.16756195  0.49981193
   0.00003073  0.66775720  0.99982042
   0.99936276  0.66766141  0.50010726
   0.50017402  0.16717052  0.00013706
   0.49994359  0.16739792  0.50024068
   0.49981932  0.66746779  0.99999646
   0.50034275  0.66750845  0.49959604
   0.31537631  0.31520292  0.31556161
   0.31558540  0.31551434  0.81510713
   0.31560312  0.81560976  0.31490549
   0.31546462  0.81485852  0.81552937
   0.81555919  0.31556824  0.31526215
   0.81543921  0.31544718  0.81543026
   0.81536792  0.81546587  0.31533109
   0.81501354  0.81524196  0.81556546
   0.18466592  0.18457720  0.18465360
   0.18459559  0.18458276  0.68458866
   0.18495973  0.68456556  0.18467496