 112 112   0   0
  0.6922245E+01  0.9967870E-09  0.9967871E-09  0.9967869E-09  0.5000000E-15
   1.0000000000000000E-004
  CAR 
 unknown system                          
     15.17879229    -11.85720369  301      5.14278923      1.00000000
    -11.857  0.0000E+00  0.0000E+00
    -11.767  0.0000E+00  0.0000E+00
    -11.677  0.0000E+00  0.0000E+00
    -11.587  0.0000E+00  0.0000E+00
    -11.497  0.0000E+00  0.0000E+00
    -11.407  0.0000E+00  0.0000E+00
    -11.316  0.0000E+00  0.0000E+00
    -11.226  0.0000E+00  0.0000E+00
    -11.136  0.0000E+00  0.0000E+00
    -11.046  0.0000E+00  0.0000E+00
    -10.956  0.0000E+00  0.0000E+00
    -10.866  0.0000E+00  0.0000E+00
    -10.776  0.0000E+00  0.0000E+00
    -10.686  0.0000E+00  0.0000E+00
    -10.596  0.3289E-03  0.3593E-05
    -10.505  0.4625E-02  0.1895E-03
    -10.415  0.1390E-01  0.9867E-03
    -10.325  0.7221E-01  0.3145E-02
    -10.235  0.1802E-01  0.1151E-01
    -10.145  0.8911E-02  0.1270E-01
    -10.055  0.2976E-02  0.1321E-01
     -9.965  0.2164E-03  0.1333E-01
     -9.875  0.1818E+00  0.1963E-01
     -9.784  0.8386E-01  0.3718E-01
     -9.694  0.1225E+00  0.4444E-01
     -9.604  0.3047E-01  0.5305E-01
     -9.514  0.0000E+00  0.5333E-01
     -9.424  0.0000E+00  0.5333E-01
     -9.334  0.0000E+00  0.5333E-01
     -9.244  0.0000E+00  0.5333E-01
     -9.154  0.0000E+00  0.5333E-01
     -9.063  0.0000E+00  0.5333E-01
     -8.973  0.0000E+00  0.5333E-01
     -8.883  0.0000E+00  0.5333E-01
     -8.793  0.0000E+00  0.5333E-01
     -8.703  0.0000E+00  0.5333E-01
     -8.613  0.0000E+00  0.5333E-01
     -8.523  0.0000E+00  0.5333E-01
     -8.433  0.2213E-02  0.5339E-01
     -8.343  0.1065E-01  0.5392E-01
     -8.252  0.2540E-01  0.5550E-01
     -8.162  0.5069E-01  0.5875E-01
     -8.072  0.1602E+00  0.6668E-01
     -7.982  0.6425E-01  0.7717E-01
     -7.892  0.3966E-01  0.8201E-01
     -7.802  0.2711E-01  0.8452E-01
     -7.712  0.3721E-01  0.8730E-01
     -7.622  0.6197E-01  0.9187E-01
     -7.531  0.4234E-01  0.9660E-01
     -7.441  0.2725E-01  0.9977E-01
     -7.351  0.6439E-01  0.1024E+00
     -7.261  0.1473E+00  0.1105E+00
     -7.171  0.7226E-01  0.1201E+00
     -7.081  0.5128E-01  0.1256E+00
     -6.991  0.3331E-01  0.1294E+00
     -6.901  0.1852E-01  0.1317E+00
     -6.810  0.1033E-01  0.1329E+00
     -6.720  0.4305E-01  0.1352E+00
     -6.630  0.5859E-01  0.1400E+00
     -6.540  0.4223E-01  0.1448E+00
     -6.450  0.3187E-02  0.1467E+00
     -6.360  0.6813E-01  0.1505E+00
     -6.270  0.5080E-01  0.1565E+00
     -6.180  0.8090E-01  0.1616E+00
     -6.090  0.5481E-01  0.1685E+00
     -5.999  0.2364E-01  0.1717E+00
     -5.909  0.6335E-01  0.1734E+00
     -5.819  0.6653E-01  0.1861E+00
     -5.729  0.4864E-01  0.1881E+00
     -5.639  0.7872E-01  0.1945E+00
     -5.549  0.8178E-01  0.2018E+00
     -5.459  0.1945E+00  0.2106E+00
     -5.369  0.3898E-01  0.2174E+00
     -5.278  0.8702E-01  0.2227E+00
     -5.188  0.4493E-01  0.2320E+00
     -5.098  0.6131E-01  0.2364E+00
     -5.008  0.8102E-01  0.2429E+00
     -4.918  0.9197E-01  0.2507E+00
     -4.828  0.7907E-01  0.2598E+00
     -4.738  0.5986E-01  0.2644E+00
     -4.648  0.4268E-01  0.2717E+00
     -4.557  0.4477E-01  0.2744E+00
     -4.467  0.3707E-01  0.2786E+00
     -4.377  0.1555E-02  0.2800E+00
     -4.287  0.3969E-01  0.2843E+00
     -4.197  0.2258E-01  0.2866E+00
     -4.107  0.1482E+00  0.2942E+00
     -4.017  0.7193E-01  0.3030E+00
     -3.927  0.5791E-01  0.3088E+00
     -3.837  0.4397E-01  0.3134E+00
     -3.746  0.3011E-01  0.3167E+00
     -3.656  0.1632E-01  0.3188E+00
     -3.566  0.5158E-02  0.3197E+00
     -3.476  0.7995E-03  0.3200E+00
     -3.386  0.1765E-04  0.3200E+00
     -3.296  0.1461E-02  0.3200E+00
     -3.206  0.1088E-01  0.3205E+00
     -3.116  0.3049E-01  0.3223E+00
     -3.025  0.5688E-01  0.3262E+00
     -2.935  0.9340E-01  0.3327E+00
     -2.845  0.8819E-01  0.3417E+00
     -2.755  0.3821E-01  0.3467E+00
     -2.665  0.1853E-01  0.3493E+00
     -2.575  0.4770E-01  0.3519E+00
     -2.485  0.5891E-01  0.3570E+00
     -2.395  0.5136E-01  0.3617E+00
     -2.304  0.6677E-01  0.3671E+00
     -2.214  0.7924E-01  0.3736E+00
     -2.124  0.9116E-01  0.3813E+00
     -2.034  0.1004E+00  0.3901E+00
     -1.944  0.5920E-01  0.3968E+00
     -1.854  0.9930E-01  0.4037E+00
     -1.764  0.8734E-01  0.4128E+00
     -1.674  0.5750E-01  0.4191E+00
     -1.584  0.3638E-01  0.4233E+00
     -1.493  0.1899E+00  0.4381E+00
     -1.403  0.1115E+00  0.4486E+00
     -1.313  0.1722E+00  0.4619E+00
     -1.223  0.8296E-01  0.4724E+00
     -1.133  0.1628E+00  0.4865E+00
     -1.043  0.3283E-01  0.4917E+00
     -0.953  0.1850E-01  0.4937E+00
     -0.863  0.2976E-01  0.4958E+00
     -0.772  0.1125E+00  0.5010E+00
     -0.682  0.1731E+00  0.5148E+00
     -0.592  0.1034E+00  0.5282E+00
     -0.502  0.5064E-01  0.5343E+00
     -0.412  0.1318E+00  0.5401E+00
     -0.322  0.1863E+00  0.5569E+00
     -0.232  0.1098E+00  0.5713E+00
     -0.142  0.8154E-01  0.5794E+00
     -0.051  0.1047E+00  0.5862E+00
      0.039  0.7495E-01  0.5959E+00
      0.129  0.3361E-01  0.6002E+00
      0.219  0.3336E-01  0.6032E+00
      0.309  0.3918E-01  0.6064E+00
      0.399  0.4716E-01  0.6103E+00
      0.489  0.5913E-01  0.6150E+00
      0.579  0.7405E-01  0.6210E+00
      0.669  0.1294E+00  0.6298E+00
      0.760  0.6465E-01  0.6368E+00
      0.850  0.9671E-01  0.6441E+00
      0.940  0.6635E-01  0.6521E+00
      1.030  0.1138E+00  0.6666E+00
      1.120  0.1310E+00  0.6728E+00
      1.210  0.1593E+00  0.6869E+00
      1.300  0.1059E+00  0.6984E+00
      1.390  0.2652E+00  0.7106E+00
      1.481  0.1439E+00  0.7223E+00
      1.571  0.1014E+00  0.7343E+00
      1.661  0.1071E+00  0.7436E+00
      1.751  0.1606E+00  0.7542E+00
      1.841  0.2509E+00  0.7682E+00
      1.931  0.7588E-01  0.7867E+00
      2.021  0.3830E-01  0.7876E+00
      2.111  0.3159E+00  0.8084E+00
      2.202  0.2180E+00  0.8345E+00
      2.292  0.1233E+00  0.8477E+00
      2.382  0.8397E-01  0.8571E+00
      2.472  0.4383E-01  0.8627E+00
      2.562  0.1882E-01  0.8655E+00
      2.652  0.1496E-01  0.8667E+00
      2.742  0.6290E-01  0.8695E+00
      2.832  0.3523E+00  0.8875E+00
      2.922  0.3493E+00  0.9213E+00
      3.013  0.5001E+00  0.9584E+00
      3.103  0.6329E-01  0.9687E+00
      3.193  0.5450E-01  0.9736E+00
      3.283  0.8576E-01  0.9846E+00
      3.373  0.1287E+00  0.9897E+00
      3.463  0.1025E+00  0.9975E+00
      3.553  0.2056E+00  0.1010E+01
      3.643  0.1533E+00  0.1026E+01
      3.734  0.1211E+00  0.1038E+01
      3.824  0.1558E+00  0.1051E+01
      3.914  0.8297E-01  0.1063E+01
      4.004  0.9233E-01  0.1068E+01
      4.094  0.1687E+00  0.1082E+01
      4.184  0.1845E+00  0.1097E+01
      4.274  0.1426E-01  0.1107E+01
      4.364  0.1344E-01  0.1107E+01
      4.455  0.1593E+00  0.1114E+01
      4.545  0.1980E+00  0.1132E+01
      4.635  0.1133E+00  0.1141E+01
      4.725  0.9692E-01  0.1149E+01
      4.815  0.5658E-01  0.1157E+01
      4.905  0.3545E-01  0.1160E+01
      4.995  0.3754E-01  0.1163E+01
      5.085  0.1730E+00  0.1169E+01
      5.175  0.3387E-01  0.1175E+01
      5.266  0.1792E-01  0.1177E+01
      5.356  0.6129E-01  0.1179E+01
      5.446  0.4401E-01  0.1185E+01
      5.536  0.6802E-02  0.1186E+01
      5.626  0.2729E-02  0.1187E+01
      5.716  0.4840E-03  0.1187E+01
      5.806  0.0000E+00  0.1187E+01
      5.896  0.2224E+00  0.1195E+01
      5.987  0.1176E+00  0.1210E+01
      6.077  0.1287E+00  0.1222E+01
      6.167  0.0000E+00  0.1227E+01
      6.257  0.0000E+00  0.1227E+01
      6.347  0.2456E-05  0.1227E+01
      6.437  0.1249E-02  0.1227E+01
      6.527  0.4777E-02  0.1227E+01
      6.617  0.1299E-01  0.1228E+01
      6.708  0.2757E-01  0.1230E+01
      6.798  0.3556E-01  0.1232E+01
      6.888  0.3694E-01  0.1236E+01
      6.978  0.3173E-01  0.1239E+01
      7.068  0.3207E-01  0.1242E+01
      7.158  0.7173E-01  0.1246E+01
      7.248  0.6558E-01  0.1253E+01
      7.338  0.5311E-01  0.1258E+01
      7.428  0.4542E-01  0.1262E+01
      7.519  0.1228E+00  0.1272E+01
      7.609  0.3104E-01  0.1276E+01
      7.699  0.1808E-01  0.1278E+01
      7.789  0.9642E-02  0.1279E+01
      7.879  0.3975E-02  0.1280E+01
      7.969  0.7787E-03  0.1280E+01
      8.059  0.0000E+00  0.1280E+01
      8.149  0.0000E+00  0.1280E+01
      8.240  0.0000E+00  0.1280E+01
      8.330  0.0000E+00  0.1280E+01
      8.420  0.0000E+00  0.1280E+01
      8.510  0.0000E+00  0.1280E+01
      8.600  0.0000E+00  0.1280E+01
      8.690  0.0000E+00  0.1280E+01
      8.780  0.0000E+00  0.1280E+01
      8.870  0.0000E+00  0.1280E+01
      8.961  0.0000E+00  0.1280E+01
      9.051  0.0000E+00  0.1280E+01
      9.141  0.8849E-03  0.1280E+01
      9.231  0.3618E-02  0.1280E+01
      9.321  0.8201E-02  0.1281E+01
      9.411  0.1463E-01  0.1282E+01
      9.501  0.2438E-01  0.1283E+01
      9.591  0.3767E-01  0.1286E+01
      9.681  0.3109E-01  0.1290E+01
      9.772  0.2029E-01  0.1292E+01
      9.862  0.5149E-01  0.1294E+01
      9.952  0.7197E-01  0.1300E+01
     10.042  0.6817E-01  0.1307E+01
     10.132  0.5524E-01  0.1312E+01
     10.222  0.4059E-01  0.1317E+01
     10.312  0.2503E-01  0.1319E+01
     10.402  0.5137E-01  0.1322E+01
     10.493  0.7905E-01  0.1331E+01
     10.583  0.3613E-01  0.1334E+01
     10.673  0.6202E-01  0.1338E+01
     10.763  0.1250E+00  0.1351E+01
     10.853  0.1564E+00  0.1359E+01
     10.943  0.3781E-01  0.1365E+01
     11.033  0.4928E-01  0.1369E+01
     11.123  0.5561E-01  0.1374E+01
     11.214  0.6000E-01  0.1379E+01
     11.304  0.5870E-01  0.1384E+01
     11.394  0.2498E+00  0.1399E+01
     11.484  0.4696E-01  0.1413E+01
     11.574  0.4151E-01  0.1416E+01
     11.664  0.8752E-01  0.1422E+01
     11.754  0.8732E-01  0.1433E+01
     11.844  0.8721E-01  0.1440E+01
     11.934  0.2686E-01  0.1443E+01
     12.025  0.3731E-01  0.1446E+01
     12.115  0.4480E-01  0.1450E+01
     12.205  0.5073E-01  0.1454E+01
     12.295  0.5531E-01  0.1459E+01
     12.385  0.5855E-01  0.1464E+01
     12.475  0.6045E-01  0.1470E+01
     12.565  0.6100E-01  0.1475E+01
     12.655  0.7964E-01  0.1481E+01
     12.746  0.1335E+00  0.1491E+01
     12.836  0.6245E-01  0.1499E+01
     12.926  0.3432E-01  0.1503E+01
     13.016  0.4698E-01  0.1507E+01
     13.106  0.5268E-01  0.1512E+01
     13.196  0.6264E-01  0.1517E+01
     13.286  0.6396E-01  0.1523E+01
     13.376  0.4781E-01  0.1528E+01
     13.467  0.2391E-01  0.1531E+01
     13.557  0.9020E-01  0.1535E+01
     13.647  0.7403E-01  0.1545E+01
     13.737  0.2940E-01  0.1548E+01
     13.827  0.2941E-01  0.1551E+01
     13.917  0.1267E-01  0.1553E+01
     14.007  0.0000E+00  0.1553E+01
     14.097  0.0000E+00  0.1553E+01
     14.187  0.0000E+00  0.1553E+01
     14.278  0.0000E+00  0.1553E+01
     14.368  0.0000E+00  0.1553E+01
     14.458  0.0000E+00  0.1553E+01
     14.548  0.0000E+00  0.1553E+01
     14.638  0.0000E+00  0.1553E+01
     14.728  0.0000E+00  0.1553E+01
     14.818  0.0000E+00  0.1553E+01
     14.908  0.0000E+00  0.1553E+01
     14.999  0.0000E+00  0.1553E+01
     15.089  0.0000E+00  0.1553E+01
     15.179  0.0000E+00  0.1553E+01
