  112  112  300    1
  0.6922245E+01  0.9967870E-09  0.9967871E-09  0.9967869E-09  0.5000000E-15
   1.0000000000000000E-004
  CAR 
 unknown system                          
    352      4    233
 
  0.1262379E-14  0.1262379E-14  0.1262379E-14  0.1250000E+00
    1      -10.628295   1.000000
    2       -9.931410   1.000000
    3       -9.847455   1.000000
    4       -9.847454   1.000000
    5       -9.847453   1.000000
    6       -9.615461   1.000000
    7       -9.615461   1.000000
    8       -9.615461   1.000000
    9       -8.508131   1.000000
   10       -8.508130   1.000000
   11       -8.508129   1.000000
   12       -8.053090   1.000000
   13       -8.053090   1.000000
   14       -8.053089   1.000000
   15       -7.040211   1.000000
   16       -7.040210   1.000000
   17       -7.040209   1.000000
   18       -6.941784   1.000000
   19       -6.661345   1.000000
   20       -6.631028   1.000000
   21       -6.456501   1.000000
   22       -6.456501   1.000000
   23       -6.456500   1.000000
   24       -6.083038   1.000000
   25       -6.083037   1.000000
   26       -6.083035   1.000000
   27       -5.935913   1.000000
   28       -5.884786   1.000000
   29       -5.792375   1.000000
   30       -5.792372   1.000000
   31       -5.792370   1.000000
   32       -5.401383   1.000000
   33       -5.401382   1.000000
   34       -5.378220   1.000000
   35       -5.378219   1.000000
   36       -5.378217   1.000000
   37       -5.108517   1.000000
   38       -5.108512   1.000000
   39       -4.996306   1.000000
   40       -4.996305   1.000000
   41       -4.996302   1.000000
   42       -4.362645   1.000000
   43       -3.627252   1.000000
   44       -3.627252   1.000000
   45       -3.627252   1.000000
   46       -3.450481   1.000000
   47       -3.450481   1.000000
   48       -3.368233   1.000000
   49       -3.368232   1.000000
   50       -3.368230   1.000000
   51       -3.308414   1.000000
   52       -3.308410   1.000000
   53       -3.308408   1.000000
   54       -3.052900   1.000000
   55       -3.052898   1.000000
   56       -2.579690   1.000000
   57       -2.579690   1.000000
   58       -2.579689   1.000000
   59       -2.408451   1.000000
   60       -2.408450   1.000000
   61       -2.408450   1.000000
   62       -1.498547   1.000000
   63       -1.377005   1.000000
   64       -1.376997   1.000000
   65       -0.973930   1.000000
   66       -0.973930   1.000000
   67       -0.973929   1.000000
   68       -0.957896   1.000000
   69       -0.957894   1.000000
   70       -0.957893   1.000000
   71       -0.945360   1.000000
   72       -0.945360   1.000000
   73       -0.945360   1.000000
   74       -0.736106   1.000000
   75       -0.736103   1.000000
   76       -0.736100   1.000000
   77       -0.505906   1.000000
   78       -0.311118   1.000000
   79       -0.311118   1.000000
   80       -0.311118   1.000000
   81       -0.217268   1.000000
   82       -0.217268   1.000000
   83       -0.217268   1.000000
   84       -0.146309   1.000000
   85       -0.146302   1.000000
   86       -0.082935   1.000000
   87       -0.082933   1.000000
   88       -0.082933   1.000000
   89        0.220514   1.000000
   90        0.220515   1.000000
   91        0.220517   1.000000
   92        0.235549   1.000000
   93        0.366294   1.000000
   94        0.366295   1.000000
   95        0.366298   1.000000
   96        0.612478   1.000000
   97        0.612479   1.000000
   98        0.953446   1.000000
   99        0.953447   1.000000
  100        0.953448   1.000000
  101        0.979911   1.000000
  102        0.979913   1.000000
  103        0.979914   1.000000
  104        0.990683   1.000000
  105        0.990684   1.000000
  106        0.990686   1.000000
  107        1.149969   1.000000
  108        1.149975   1.000000
  109        1.149978   1.000000
  110        1.334108   1.000000
  111        1.419664   1.000000
  112        1.419665   1.000000
  113        1.419666   1.000000
  114        1.586671   1.000000
  115        1.586672   1.000000
  116        1.813054   1.000000
  117        1.889352   1.000000
  118        1.889353   1.000000
  119        1.889354   1.000000
  120        2.100497   1.000000
  121        2.100500   1.000000
  122        2.160994   1.000000
  123        2.160996   1.000000
  124        2.161000   1.000000
  125        2.187154   1.000000
  126        2.187157   1.000000
  127        2.271877   1.000000
  128        2.271881   1.000000
  129        2.271883   1.000000
  130        2.583900   1.000000
  131        2.583902   1.000000
  132        2.583905   1.000000
  133        2.711621   1.000000
  134        2.711622   1.000000
  135        2.711624   1.000000
  136        2.802106   1.000000
  137        2.802107   1.000000
  138        2.802109   1.000000
  139        2.806972   1.000000
  140        2.806974   1.000000
  141        2.806977   1.000000
  142        2.973580   1.000000
  143        2.973583   1.000000
  144        2.973585   1.000000
  145        3.083946   1.000000
  146        3.083950   1.000000
  147        3.083952   1.000000
  148        3.443353   1.000000
  149        3.716371   1.000000
  150        3.762285   1.000000
  151        3.762288   1.000000
  152        3.762293   1.000000
  153        3.763888   1.000000
  154        3.763889   1.000000
  155        3.763892   1.000000
  156        3.932429   1.000000
  157        3.932429   1.000000
  158        3.932429   1.000000
  159        3.990451   1.000000
  160        3.990451   1.000000
  161        4.131251   1.000000
  162        4.291342   1.000000
  163        4.291345   1.000000
  164        4.291348   1.000000
  165        4.304144   1.000000
  166        4.304145   1.000000
  167        4.304147   1.000000
  168        4.329738   1.000000
  169        4.350870   1.000000
  170        4.350871   1.000000
  171        4.354132   1.000000
  172        4.354134   1.000000
  173        5.281334   0.889841
  174        5.281334   0.889841
  175        5.281335   0.190291
  176        5.373533  -0.063801
  177        5.373534   0.064619
  178        5.781763  -0.057477
  179        5.923901   0.000000
  180        5.923905   0.000000
  181        5.923907   0.000000
  182        6.140739   0.000000
  183        6.140742   0.000000
  184        6.140743   0.000000
  185        6.342849   0.000000
  186        6.342854   0.000000
  187        6.342856   0.000000
  188        6.994104   0.000000
  189        7.744899   0.000000
  190        8.040753   0.000000
  191        8.040753   0.000000
  192        8.040754   0.000000
  193        9.052587   0.000000
  194        9.052587   0.000000
  195        9.052587   0.000000
  196        9.917900   0.000000
  197       10.194770   0.000000
  198       10.194771   0.000000
  199       10.194773   0.000000
  200       10.287652   0.000000
  201       10.287658   0.000000
  202       10.464215   0.000000
  203       10.464217   0.000000
  204       10.464218   0.000000
  205       10.542850   0.000000
  206       10.542854   0.000000
  207       10.542856   0.000000
  208       10.601318   0.000000
  209       11.536502   0.000000
  210       11.536504   0.000000
  211       11.536506   0.000000
  212       11.555105   0.000000
  213       11.555106   0.000000
  214       11.555109   0.000000
  215       11.578503   0.000000
  216       11.578506   0.000000
  217       12.774094   0.000000
  218       12.774096   0.000000
  219       12.774101   0.000000
  220       12.920054   0.000000
  221       13.156069   0.000000
  222       13.156072   0.000000
  223       13.156078   0.000000
  224       13.229414   0.000000
  225       13.229417   0.000000
  226       13.229420   0.000000
  227       13.310603   0.000000
  228       13.310609   0.000000
  229       13.767609   0.000000
  230       13.767611   0.000000
  231       13.767614   0.000000
  232       13.782556   0.000000
  233       13.813819   0.000000
 
  0.5000000E+00  0.1338648E-14  0.1262392E-14  0.3750000E+00
    1      -10.339466   1.000000
    2      -10.339466   1.000000
    3       -9.803469   1.000000
    4       -9.803469   1.000000
    5       -9.760615   1.000000
    6       -9.760615   1.000000
    7       -9.760614   1.000000
    8       -9.760614   1.000000
    9       -8.099098   1.000000
   10       -8.099098   1.000000
   11       -8.099096   1.000000
   12       -8.099096   1.000000
   13       -7.557377   1.000000
   14       -7.557377   1.000000
   15       -7.465391   1.000000
   16       -7.465391   1.000000
   17       -7.278478   1.000000
   18       -7.278478   1.000000
   19       -7.278477   1.000000
   20       -7.278477   1.000000
   21       -6.817973   1.000000
   22       -6.817973   1.000000
   23       -6.254649   1.000000
   24       -6.254649   1.000000
   25       -6.242239   1.000000
   26       -6.242239   1.000000
   27       -5.813118   1.000000
   28       -5.813118   1.000000
   29       -5.481536   1.000000
   30       -5.481536   1.000000
   31       -5.481531   1.000000
   32       -5.481531   1.000000
   33       -5.265228   1.000000
   34       -5.265228   1.000000
   35       -4.882360   1.000000
   36       -4.882360   1.000000
   37       -4.882358   1.000000
   38       -4.882358   1.000000
   39       -4.723818   1.000000
   40       -4.723818   1.000000
   41       -4.439475   1.000000
   42       -4.439475   1.000000
   43       -4.377571   1.000000
   44       -4.377571   1.000000
   45       -4.065853   1.000000
   46       -4.065853   1.000000
   47       -4.065848   1.000000
   48       -4.065848   1.000000
   49       -2.959833   1.000000
   50       -2.959833   1.000000
   51       -2.959829   1.000000
   52       -2.959829   1.000000
   53       -2.423860   1.000000
   54       -2.423860   1.000000
   55       -2.404372   1.000000
   56       -2.404372   1.000000
   57       -2.367891   1.000000
   58       -2.367891   1.000000
   59       -2.109653   1.000000
   60       -2.109653   1.000000
   61       -1.976711   1.000000
   62       -1.976711   1.000000
   63       -1.912535   1.000000
   64       -1.912535   1.000000
   65       -1.557114   1.000000
   66       -1.557114   1.000000
   67       -1.557113   1.000000
   68       -1.557113   1.000000
   69       -1.287432   1.000000
   70       -1.287432   1.000000
   71       -1.287430   1.000000
   72       -1.287430   1.000000
   73       -1.175782   1.000000
   74       -1.175782   1.000000
   75       -0.585631   1.000000
   76       -0.585631   1.000000
   77       -0.585627   1.000000
   78       -0.585627   1.000000
   79       -0.575579   1.000000
   80       -0.575579   1.000000
   81       -0.347457   1.000000
   82       -0.347457   1.000000
   83       -0.247757   1.000000
   84       -0.247757   1.000000
   85       -0.019499   1.000000
   86       -0.019499   1.000000
   87       -0.019496   1.000000
   88       -0.019496   1.000000
   89        0.048851   1.000000
   90        0.048851   1.000000
   91        0.711533   1.000000
   92        0.711533   1.000000
   93        0.711540   1.000000
   94        0.711540   1.000000
   95        0.795528   1.000000
   96        0.795528   1.000000
   97        0.957578   1.000000
   98        0.957578   1.000000
   99        0.957581   1.000000
  100        0.957581   1.000000
  101        1.108921   1.000000
  102        1.108921   1.000000
  103        1.124072   1.000000
  104        1.124072   1.000000
  105        1.402224   1.000000
  106        1.402224   1.000000
  107        1.416002   1.000000
  108        1.416002   1.000000
  109        1.416002   1.000000
  110        1.416002   1.000000
  111        1.512902   1.000000
  112        1.512902   1.000000
  113        1.723833   1.000000
  114        1.723833   1.000000
  115        1.883606   1.000000
  116        1.883606   1.000000
  117        1.883607   1.000000
  118        1.883607   1.000000
  119        2.116917   1.000000
  120        2.116917   1.000000
  121        2.116917   1.000000
  122        2.116917   1.000000
  123        2.127665   1.000000
  124        2.127665   1.000000
  125        2.139500   1.000000
  126        2.139500   1.000000
  127        2.195220   1.000000
  128        2.195220   1.000000
  129        2.195226   1.000000
  130        2.195226   1.000000
  131        2.824789   1.000000
  132        2.824789   1.000000
  133        2.824793   1.000000
  134        2.824793   1.000000
  135        2.833180   1.000000
  136        2.833180   1.000000
  137        2.859638   1.000000
  138        2.859638   1.000000
  139        2.921540   1.000000
  140        2.921540   1.000000
  141        2.934050   1.000000
  142        2.934050   1.000000
  143        2.994165   1.000000
  144        2.994165   1.000000
  145        2.994169   1.000000
  146        2.994169   1.000000
  147        3.242615   1.000000
  148        3.242615   1.000000
  149        3.387951   1.000000
  150        3.387951   1.000000
  151        3.387956   1.000000
  152        3.387956   1.000000
  153        3.506792   1.000000
  154        3.506792   1.000000
  155        3.527955   1.000000
  156        3.527955   1.000000
  157        3.649445   1.000000
  158        3.649445   1.000000
  159        3.733002   1.000000
  160        3.733002   1.000000
  161        4.166436   1.000000
  162        4.166436   1.000000
  163        4.166438   1.000000
  164        4.166438   1.000000
  165        4.225555   1.000000
  166        4.225555   1.000000
  167        4.505099   1.000000
  168        4.505099   1.000000
  169        4.545281   1.000000
  170        4.545281   1.000000
  171        4.837720   1.000000
  172        4.837720   1.000000
  173        4.837723   1.000492
  174        4.837723   1.000492
  175        5.102764   0.913333
  176        5.102764   0.862995
  177        5.330767   0.057195
  178        5.330767   0.055935
  179        5.943777   0.000000
  180        5.943777   0.000000
  181        6.107856   0.000000
  182        6.107856   0.000000
  183        6.107858   0.000000
  184        6.107858   0.000000
  185        7.087276   0.000000
  186        7.087276   0.000000
  187        7.096187   0.000000
  188        7.096187   0.000000
  189        7.096191   0.000000
  190        7.096191   0.000000
  191        7.497675   0.000000
  192        7.497675   0.000000
  193        9.492486   0.000000
  194        9.492486   0.000000
  195        9.813653   0.000000
  196        9.813653   0.000000
  197        9.813653   0.000000
  198        9.813653   0.000000
  199       10.446322   0.000000
  200       10.446322   0.000000
  201       10.752196   0.000000
  202       10.752196   0.000000
  203       10.890028   0.000000
  204       10.890028   0.000000
  205       10.890029   0.000000
  206       10.890029   0.000000
  207       11.194761   0.000000
  208       11.194761   0.000000
  209       11.321258   0.000000
  210       11.321258   0.000000
  211       11.321265   0.000000
  212       11.321265   0.000000
  213       11.732543   0.000000
  214       11.732543   0.000000
  215       11.879745   0.000000
  216       11.879745   0.000000
  217       12.682125   0.000000
  218       12.682125   0.000000
  219       12.699064   0.000000
  220       12.699064   0.000000
  221       12.699068   0.000000
  222       12.699068   0.000000
  223       12.751476   0.000000
  224       12.751476   0.000000
  225       12.791571   0.000000
  226       12.791571   0.000000
  227       13.416571   0.000000
  228       13.416571   0.000000
  229       13.485889   0.000000
  230       13.485889   0.000000
  231       13.485893   0.000000
  232       13.485893   0.000000
  233       13.949883   0.000000
 
  0.5000000E+00  0.5000000E+00  0.1264281E-14  0.3750000E+00
    1      -10.241073   1.000000
    2      -10.241073   1.000000
    3       -9.944077   1.000000
    4       -9.944077   1.000000
    5       -9.935717   1.000000
    6       -9.935717   1.000000
    7       -9.584365   1.000000
    8       -9.584365   1.000000
    9       -8.009936   1.000000
   10       -8.009936   1.000000
   11       -7.852999   1.000000
   12       -7.852999   1.000000
   13       -7.717002   1.000000
   14       -7.717002   1.000000
   15       -7.647215   1.000000
   16       -7.647215   1.000000
   17       -7.369882   1.000000
   18       -7.369882   1.000000
   19       -7.223444   1.000000
   20       -7.223444   1.000000
   21       -6.462080   1.000000
   22       -6.462080   1.000000
   23       -6.451946   1.000000
   24       -6.451946   1.000000
   25       -6.074430   1.000000
   26       -6.074430   1.000000
   27       -5.920363   1.000000
   28       -5.920363   1.000000
   29       -5.705003   1.000000
   30       -5.705003   1.000000
   31       -5.428239   1.000000
   32       -5.428239   1.000000
   33       -5.185994   1.000000
   34       -5.185994   1.000000
   35       -5.158447   1.000000
   36       -5.158447   1.000000
   37       -4.867689   1.000000
   38       -4.867689   1.000000
   39       -4.640741   1.000000
   40       -4.640741   1.000000
   41       -4.605127   1.000000
   42       -4.605127   1.000000
   43       -4.278364   1.000000
   44       -4.278364   1.000000
   45       -4.172596   1.000000
   46       -4.172596   1.000000
   47       -4.170411   1.000000
   48       -4.170411   1.000000
   49       -2.795873   1.000000
   50       -2.795873   1.000000
   51       -2.659231   1.000000
   52       -2.659231   1.000000
   53       -2.630960   1.000000
   54       -2.630960   1.000000
   55       -1.996580   1.000000
   56       -1.996580   1.000000
   57       -1.985203   1.000000
   58       -1.985203   1.000000
   59       -1.869926   1.000000
   60       -1.869926   1.000000
   61       -1.768830   1.000000
   62       -1.768830   1.000000
   63       -1.736957   1.000000
   64       -1.736957   1.000000
   65       -1.569902   1.000000
   66       -1.569902   1.000000
   67       -1.521629   1.000000
   68       -1.521629   1.000000
   69       -1.507961   1.000000
   70       -1.507961   1.000000
   71       -1.379632   1.000000
   72       -1.379632   1.000000
   73       -1.173117   1.000000
   74       -1.173117   1.000000
   75       -0.845972   1.000000
   76       -0.845972   1.000000
   77       -0.789042   1.000000
   78       -0.789042   1.000000
   79       -0.730290   1.000000
   80       -0.730290   1.000000
   81       -0.442383   1.000000
   82       -0.442383   1.000000
   83       -0.390068   1.000000
   84       -0.390068   1.000000
   85       -0.388477   1.000000
   86       -0.388477   1.000000
   87       -0.353778   1.000000
   88       -0.353778   1.000000
   89       -0.064661   1.000000
   90       -0.064661   1.000000
   91        0.171572   1.000000
   92        0.171572   1.000000
   93        0.625591   1.000000
   94        0.625591   1.000000
   95        0.948612   1.000000
   96        0.948612   1.000000
   97        1.000307   1.000000
   98        1.000307   1.000000
   99        1.046219   1.000000
  100        1.046219   1.000000
  101        1.275880   1.000000
  102        1.275880   1.000000
  103        1.371250   1.000000
  104        1.371250   1.000000
  105        1.373108   1.000000
  106        1.373108   1.000000
  107        1.560598   1.000000
  108        1.560598   1.000000
  109        1.710644   1.000000
  110        1.710644   1.000000
  111        1.773765   1.000000
  112        1.773765   1.000000
  113        1.797480   1.000000
  114        1.797480   1.000000
  115        1.827762   1.000000
  116        1.827762   1.000000
  117        1.906382   1.000000
  118        1.906382   1.000000
  119        2.011820   1.000000
  120        2.011820   1.000000
  121        2.021522   1.000000
  122        2.021522   1.000000
  123        2.032456   1.000000
  124        2.032456   1.000000
  125        2.109791   1.000000
  126        2.109791   1.000000
  127        2.118231   1.000000
  128        2.118231   1.000000
  129        2.434587   1.000000
  130        2.434587   1.000000
  131        2.782305   1.000000
  132        2.782305   1.000000
  133        2.882961   1.000000
  134        2.882961   1.000000
  135        2.897655   1.000000
  136        2.897655   1.000000
  137        2.956573   1.000000
  138        2.956573   1.000000
  139        2.975767   1.000000
  140        2.975767   1.000000
  141        2.976985   1.000000
  142        2.976985   1.000000
  143        2.988506   1.000000
  144        2.988506   1.000000
  145        3.020616   1.000000
  146        3.020616   1.000000
  147        3.203998   1.000000
  148        3.203998   1.000000
  149        3.338848   1.000000
  150        3.338848   1.000000
  151        3.534578   1.000000
  152        3.534578   1.000000
  153        3.585743   1.000000
  154        3.585743   1.000000
  155        3.696056   1.000000
  156        3.696056   1.000000
  157        3.870108   1.000000
  158        3.870108   1.000000
  159        3.935968   1.000000
  160        3.935968   1.000000
  161        3.963309   1.000000
  162        3.963309   1.000000
  163        3.989611   1.000000
  164        3.989611   1.000000
  165        4.159139   1.000000
  166        4.159139   1.000000
  167        4.490717   1.000000
  168        4.490717   1.000000
  169        4.551991   1.000000
  170        4.551991   1.000000
  171        4.621307   1.000000
  172        4.621307   1.000000
  173        4.649577   1.008928
  174        4.649577   1.008928
  175        5.065478   0.979867
  176        5.065478   0.948147
  177        5.485729   0.015179
  178        5.485729   0.022104
  179        5.856226   0.000000
  180        5.856226   0.000000
  181        5.897778   0.000000
  182        5.897778   0.000000
  183        5.989566   0.000000
  184        5.989566   0.000000
  185        6.599097   0.000000
  186        6.599097   0.000000
  187        7.252846   0.000000
  188        7.252846   0.000000
  189        7.439205   0.000000
  190        7.439205   0.000000
  191        7.501203   0.000000
  192        7.501203   0.000000
  193        9.723020   0.000000
  194        9.723020   0.000000
  195       10.077230   0.000000
  196       10.077230   0.000000
  197       10.228522   0.000000
  198       10.228522   0.000000
  199       10.430758   0.000000
  200       10.430758   0.000000
  201       10.711989   0.000000
  202       10.711989   0.000000
  203       10.840291   0.000000
  204       10.840291   0.000000
  205       11.308055   0.000000
  206       11.308055   0.000000
  207       11.395654   0.000000
  208       11.395654   0.000000
  209       11.459899   0.000000
  210       11.459899   0.000000
  211       11.460587   0.000000
  212       11.460587   0.000000
  213       11.718490   0.000000
  214       11.718490   0.000000
  215       11.784924   0.000000
  216       11.784924   0.000000
  217       11.940312   0.000000
  218       11.940312   0.000000
  219       12.001058   0.000000
  220       12.001058   0.000000
  221       12.038525   0.000000
  222       12.038525   0.000000
  223       12.637706   0.000000
  224       12.637706   0.000000
  225       12.696075   0.000000
  226       12.696075   0.000000
  227       12.959852   0.000000
  228       12.959852   0.000000
  229       13.150629   0.000000
  230       13.150629   0.000000
  231       13.659566   0.000000
  232       13.659585   0.000000
  233       13.694069   0.000000
 
  0.5000000E+00  0.5000000E+00  0.5000000E+00  0.1250000E+00
    1      -10.333145   1.000000
    2      -10.333145   1.000000
    3       -9.764946   1.000000
    4       -9.764946   1.000000
    5       -9.764946   1.000000
    6       -9.764946   1.000000
    7       -9.764946   1.000000
    8       -9.764946   1.000000
    9       -8.204203   1.000000
   10       -8.204203   1.000000
   11       -8.204202   1.000000
   12       -8.204202   1.000000
   13       -8.204202   1.000000
   14       -8.204202   1.000000
   15       -6.760541   1.000000
   16       -6.760541   1.000000
   17       -6.753509   1.000000
   18       -6.753509   1.000000
   19       -6.753508   1.000000
   20       -6.753508   1.000000
   21       -6.753507   1.000000
   22       -6.753507   1.000000
   23       -6.108424   1.000000
   24       -6.108424   1.000000
   25       -5.787713   1.000000
   26       -5.787713   1.000000
   27       -5.787712   1.000000
   28       -5.787712   1.000000
   29       -5.787710   1.000000
   30       -5.787710   1.000000
   31       -5.685929   1.000000
   32       -5.685929   1.000000
   33       -5.685929   1.000000
   34       -5.685929   1.000000
   35       -5.685928   1.000000
   36       -5.685928   1.000000
   37       -5.397418   1.000000
   38       -5.397418   1.000000
   39       -5.287247   1.000000
   40       -5.287247   1.000000
   41       -5.287244   1.000000
   42       -5.287244   1.000000
   43       -3.573192   1.000000
   44       -3.573192   1.000000
   45       -3.573191   1.000000
   46       -3.573191   1.000000
   47       -3.573190   1.000000
   48       -3.573190   1.000000
   49       -3.105625   1.000000
   50       -3.105625   1.000000
   51       -3.105625   1.000000
   52       -3.105625   1.000000
   53       -1.990798   1.000000
   54       -1.990798   1.000000
   55       -1.990797   1.000000
   56       -1.990797   1.000000
   57       -1.990797   1.000000
   58       -1.990797   1.000000
   59       -1.372560   1.000000
   60       -1.372560   1.000000
   61       -1.372559   1.000000
   62       -1.372559   1.000000
   63       -1.372559   1.000000
   64       -1.372559   1.000000
   65       -1.317018   1.000000
   66       -1.317018   1.000000
   67       -1.262232   1.000000
   68       -1.262232   1.000000
   69       -1.262232   1.000000
   70       -1.262232   1.000000
   71       -1.139030   1.000000
   72       -1.139030   1.000000
   73       -1.139029   1.000000
   74       -1.139029   1.000000
   75       -1.139029   1.000000
   76       -1.139029   1.000000
   77       -0.832547   1.000000
   78       -0.832547   1.000000
   79       -0.832546   1.000000
   80       -0.832546   1.000000
   81       -0.832545   1.000000
   82       -0.832545   1.000000
   83       -0.467674   1.000000
   84       -0.467674   1.000000
   85       -0.467673   1.000000
   86       -0.467673   1.000000
   87       -0.467672   1.000000
   88       -0.467672   1.000000
   89       -0.013748   1.000000
   90       -0.013748   1.000000
   91       -0.013747   1.000000
   92       -0.013747   1.000000
   93       -0.013747   1.000000
   94       -0.013747   1.000000
   95        0.317324   1.000000
   96        0.317324   1.000000
   97        0.317326   1.000000
   98        0.317326   1.000000
   99        0.317327   1.000000
  100        0.317327   1.000000
  101        1.124536   1.000000
  102        1.124536   1.000000
  103        1.124537   1.000000
  104        1.124537   1.000000
  105        1.124538   1.000000
  106        1.124538   1.000000
  107        1.367312   1.000000
  108        1.367312   1.000000
  109        1.367312   1.000000
  110        1.367312   1.000000
  111        1.651862   1.000000
  112        1.651862   1.000000
  113        1.791150   1.000000
  114        1.791150   1.000000
  115        1.791151   1.000000
  116        1.791151   1.000000
  117        1.791154   1.000000
  118        1.791154   1.000000
  119        2.484374   1.000000
  120        2.484374   1.000000
  121        2.593507   1.000000
  122        2.593507   1.000000
  123        2.593507   1.000000
  124        2.593507   1.000000
  125        2.593507   1.000000
  126        2.593507   1.000000
  127        2.753811   1.000000
  128        2.753811   1.000000
  129        2.753812   1.000000
  130        2.753812   1.000000
  131        2.753812   1.000000
  132        2.753812   1.000000
  133        2.875618   1.000000
  134        2.875618   1.000000
  135        2.875619   1.000000
  136        2.875619   1.000000
  137        2.969677   1.000000
  138        2.969677   1.000000
  139        2.969678   1.000000
  140        2.969678   1.000000
  141        2.969679   1.000000
  142        2.969679   1.000000
  143        3.324295   1.000000
  144        3.324295   1.000000
  145        3.324295   1.000000
  146        3.324295   1.000000
  147        3.324295   1.000000
  148        3.324295   1.000000
  149        3.721959   1.000000
  150        3.721959   1.000000
  151        3.721959   1.000000
  152        3.721959   1.000000
  153        3.875531   1.000000
  154        3.875531   1.000000
  155        3.875531   1.000000
  156        3.875531   1.000000
  157        3.875531   1.000000
  158        3.875531   1.000000
  159        3.992046   1.000000
  160        3.992046   1.000000
  161        4.038363   1.000000
  162        4.038363   1.000000
  163        4.038364   1.000000
  164        4.038364   1.000000
  165        4.038365   1.000000
  166        4.038365   1.000000
  167        4.393770   1.000000
  168        4.393770   1.000000
  169        4.417333   1.000000
  170        4.417333   1.000000
  171        4.417335   1.000000
  172        4.417335   1.000000
  173        4.417337   1.017153
  174        4.417337   1.017153
  175        4.513941   1.177581
  176        4.513941   1.199770
  177        4.513942   1.091922
  178        4.513942   0.962322
  179        5.819714   0.000000
  180        5.819714   0.000000
  181        5.819717   0.000000
  182        5.819717   0.000000
  183        5.819719   0.000000
  184        5.819719   0.000000
  185        7.312700   0.000000
  186        7.312700   0.000000
  187        7.503588   0.000000
  188        7.503588   0.000000
  189        7.503589   0.000000
  190        7.503589   0.000000
  191        7.503590   0.000000
  192        7.503590   0.000000
  193       10.475845   0.000000
  194       10.475845   0.000000
  195       10.475846   0.000000
  196       10.475846   0.000000