 vasp.6.2.0 18Jan21 (build Feb 25 2021 07:51:20) complex                         
 executed on             LinuxPGI date 2022.04.01  13:50:42
 running on    1 total cores
 distrk:  each k-point on    1 cores,    1 groups
 distr:  one band on NCORE=   1 cores,    1 groups


--------------------------------------------------------------------------------------------------------


 INCAR:
   ALGO = Fast
   PREC = Accurate
   EDIFF = 1E-6
   ENCUT = 700
   ISMEAR = -5
   IBRION = 2
   ISIF = 4
   LREAL = Auto
   LWAVE = False
   LCHARGE = False
   NSW = 300
   SIGMA = 0.05

 POTCAR:    PAW_PBE B 06Sep2000                   
 POTCAR:    PAW_PBE C 08Apr2002                   
 POTCAR:    PAW_PBE B 06Sep2000                   
   VRHFIN =B: s2p1                                                                                  
   LEXCH  = PE                                                                                      
   EATOM  =    71.1703 eV,    5.2309 Ry                                                             
                                                                                                    
   TITEL  = PAW_PBE B 06Sep2000                                                                     
   LULTRA =        F    use ultrasoft PP ?                                                          
   IUNSCR =        1    unscreen: 0-lin 1-nonlin 2-no                                               
   RPACOR =    1.200    partial core radius                                                         
   POMASS =   10.811; ZVAL   =    3.000    mass and valenz                                          
   RCORE  =    1.700    outmost cutoff radius                                                       
   RWIGS  =    1.710; RWIGS  =    0.905    wigner-seitz radius (au A)                               
   ENMAX  =  318.614; ENMIN  =  238.960 eV                                                          
   ICORE  =        2    local potential                                                             
   LCOR   =        T    correct aug charges                                                         
   LPAW   =        T    paw PP                                                                      
   EAUG   =  535.514                                                                                
   DEXC   =    0.000                                                                                
   RMAX   =    1.732    core radius for proj-oper                                                   
   RAUG   =    1.300    factor for augmentation sphere                                              
   RDEP   =    1.757    radius for radial grids                                                     
   RDEPT  =    1.436    core radius for aug-charge                                                  
                                                                                                    
   Atomic configuration                                                                             
    4 entries                                                                                       
     n  l   j            E        occ.                                                              
     1  0  0.50      -180.5896   2.0000                                                             
     2  0  0.50        -9.4431   2.0000                                                             
     2  1  0.50        -3.6068   1.0000                                                             
     3  2  1.50        -4.0817   0.0000                                                             
   Description                                                                                      
     l       E           TYP  RCUT    TYP  RCUT                                                     
     0     -9.4430752     23  1.500                                                                 
     0      0.8675899     23  1.500                                                                 
     1     -3.6067955     23  1.700                                                                 
     1      6.1086146     23  1.700                                                                 
     2     -4.0817478      7  1.700                                                                 
  local pseudopotential read in
  partial core-charges read in
  partial kinetic energy density read in
  atomic valenz-charges read in
  non local Contribution for L=            0  read in
    real space projection operators read in
  non local Contribution for L=            0  read in
    real space projection operators read in
  non local Contribution for L=            1  read in
    real space projection operators read in
  non local Contribution for L=            1  read in
    real space projection operators read in
    PAW grid and wavefunctions read in
 
   number of l-projection  operators is LMAX  =            4
   number of lm-projection operators is LMMAX =            8
 
 POTCAR:    PAW_PBE C 08Apr2002                   
   VRHFIN =C: s2p2                                                                                  
   LEXCH  = PE                                                                                      
   EATOM  =   147.1560 eV,   10.8157 Ry                                                             
                                                                                                    
   TITEL  = PAW_PBE C 08Apr2002                                                                     
   LULTRA =        F    use ultrasoft PP ?                                                          
   IUNSCR =        1    unscreen: 0-lin 1-nonlin 2-no                                               
   RPACOR =    1.200    partial core radius                                                         
   POMASS =   12.011; ZVAL   =    4.000    mass and valenz                                          
   RCORE  =    1.500    outmost cutoff radius                                                       
   RWIGS  =    1.630; RWIGS  =    0.863    wigner-seitz radius (au A)                               
   ENMAX  =  400.000; ENMIN  =  300.000 eV                                                          
   ICORE  =        2    local potential                                                             
   LCOR   =        T    correct aug charges                                                         
   LPAW   =        T    paw PP                                                                      
   EAUG   =  644.873                                                                                
   DEXC   =    0.000                                                                                
   RMAX   =    1.529    core radius for proj-oper                                                   
   RAUG   =    1.300    factor for augmentation sphere                                              
   RDEP   =    1.501    radius for radial grids                                                     
   RDEPT  =    1.300    core radius for aug-charge                                                  
                                                                                                    
   Atomic configuration                                                                             
    4 entries                                                                                       
     n  l   j            E        occ.                                                              
     1  0  0.50      -273.3789   2.0000                                                             
     2  0  0.50       -13.7508   2.0000                                                             
     2  1  0.50        -5.2854   2.0000                                                             
     3  2  1.50        -5.4423   0.0000                                                             
   Description                                                                                      
     l       E           TYP  RCUT    TYP  RCUT                                                     
     0    -13.7508458     23  1.200                                                                 
     0     -8.2022199     23  1.200                                                                 
     1     -5.2854383     23  1.500                                                                 
     1     34.0145650     23  1.500                                                                 
     2     -5.4423304      7  1.500                                                                 
  local pseudopotential read in
  partial core-charges read in
  partial kinetic energy density read in
  atomic valenz-charges read in
  non local Contribution for L=            0  read in
    real space projection operators read in
  non local Contribution for L=            0  read in
    real space projection operators read in
  non local Contribution for L=            1  read in
    real space projection operators read in
  non local Contribution for L=            1  read in
    real space projection operators read in
    PAW grid and wavefunctions read in
 
   number of l-projection  operators is LMAX  =            4
   number of lm-projection operators is LMMAX =            8
 
 Optimization of the real space projectors (new method)

 maximal supplied QI-value         = 22.11
 optimisation between [QCUT,QGAM] = [ 13.49, 26.97] = [ 50.94,203.75] Ry 
 Optimized for a Real-space Cutoff    1.14 Angstroem

   l    n(q)    QCUT    max X(q) W(low)/X(q) W(high)/X(q)  e(spline) 
   0      9    13.487    53.033    0.17E-03    0.11E-03    0.20E-06
   0      9    13.487    34.740    0.17E-03    0.11E-03    0.20E-06
   1      9    13.487    30.949    0.61E-04    0.25E-04    0.11E-06
   1      9    13.487    19.518    0.55E-04    0.23E-04    0.10E-06
 Optimization of the real space projectors (new method)

 maximal supplied QI-value         = 25.13
 optimisation between [QCUT,QGAM] = [ 13.32, 26.89] = [ 49.69,202.52] Ry 
 Optimized for a Real-space Cutoff    1.07 Angstroem

   l    n(q)    QCUT    max X(q) W(low)/X(q) W(high)/X(q)  e(spline) 
   0      9    13.321   115.676    0.24E-03    0.18E-03    0.16E-06
   0      9    13.321    87.132    0.24E-03    0.18E-03    0.16E-06
   1      8    13.321     4.429    0.20E-03    0.27E-03    0.12E-06
   1      8    13.321     2.733    0.16E-03    0.21E-03    0.12E-06
  PAW_PBE B 06Sep2000                   :
 energy of atom  1       EATOM=  -71.1703
 kinetic energy error for atom=    0.0004 (will be added to EATOM!!)
  PAW_PBE C 08Apr2002                   :
 energy of atom  2       EATOM= -147.1560
 kinetic energy error for atom=    0.0032 (will be added to EATOM!!)
 
 
 POSCAR: B96 C16
  positions in direct lattice
  No initial velocities read in
 exchange correlation table for  LEXCH =        8
   RHO(1)=    0.500       N(1)  =     2000
   RHO(2)=  100.500       N(2)  =     4000
 


--------------------------------------------------------------------------------------------------------


 ion  position               nearest neighbor table
   1  0.160  0.401  0.401-  97 1.49  76 1.71  42 1.71  35 1.71  59 1.73  66 1.73
   2  0.160  0.401  0.901-  98 1.49  75 1.71  41 1.71  36 1.71  60 1.73  65 1.73
   3  0.160  0.901  0.401-  99 1.49  74 1.71  44 1.71  33 1.71  57 1.73  68 1.73
   4  0.160  0.901  0.901- 100 1.49  73 1.71  43 1.71  34 1.71  58 1.73  67 1.73
   5  0.660  0.401  0.401- 101 1.49  80 1.71  46 1.71  39 1.71  63 1.73  70 1.73
   6  0.660  0.401  0.901- 102 1.49  79 1.71  45 1.71  40 1.71  64 1.73  69 1.73
   7  0.660  0.901  0.401- 103 1.49  78 1.71  48 1.71  37 1.71  61 1.73  72 1.73
   8  0.660  0.901  0.901- 104 1.49  77 1.71  47 1.71  38 1.71  62 1.73  71 1.73
   9  0.401  0.401  0.160-  97 1.49  87 1.71  45 1.71  27 1.71  51 1.73  69 1.73
  10  0.401  0.401  0.660-  98 1.49  88 1.71  46 1.71  28 1.71  52 1.73  70 1.73
  11  0.401  0.901  0.160-  99 1.49  85 1.71  47 1.71  25 1.71  49 1.73  71 1.73
  12  0.401  0.901  0.660- 100 1.49  86 1.71  48 1.71  26 1.71  50 1.73  72 1.73
  13  0.901  0.401  0.160- 101 1.49  83 1.71  41 1.71  31 1.71  55 1.73  65 1.73
  14  0.901  0.401  0.660- 102 1.49  84 1.71  42 1.71  32 1.71  56 1.73  66 1.73
  15  0.901  0.901  0.160- 103 1.49  81 1.71  43 1.71  29 1.71  53 1.73  67 1.73
  16  0.901  0.901  0.660- 104 1.49  82 1.71  44 1.71  30 1.71  54 1.73  68 1.73
  17  0.401  0.160  0.401-  97 1.49  94 1.71  26 1.71  37 1.71  61 1.73  50 1.73
  18  0.401  0.160  0.901-  98 1.49  93 1.71  25 1.71  38 1.71  62 1.73  49 1.73
  19  0.401  0.660  0.401-  99 1.49  96 1.71  28 1.71  39 1.71  63 1.73  52 1.73
  20  0.401  0.660  0.901- 100 1.49  95 1.71  27 1.71  40 1.71  64 1.73  51 1.73
  21  0.901  0.160  0.401- 101 1.49  90 1.71  30 1.71  33 1.71  57 1.73  54 1.73
  22  0.901  0.160  0.901- 102 1.49  89 1.71  29 1.71  34 1.71  58 1.73  53 1.73
  23  0.901  0.660  0.401- 103 1.49  92 1.71  32 1.71  35 1.71  59 1.73  56 1.73
  24  0.901  0.660  0.901- 104 1.49  91 1.71  31 1.71  36 1.71  60 1.73  55 1.73
  25  0.340  0.099  0.099- 105 1.49  49 1.71  18 1.71  11 1.71  85 1.73  93 1.73
  26  0.340  0.099  0.599- 106 1.49  50 1.71  17 1.71  12 1.71  86 1.73  94 1.73
  27  0.340  0.599  0.099- 107 1.49  51 1.71  20 1.71   9 1.71  87 1.73  95 1.73
  28  0.340  0.599  0.599- 108 1.49  52 1.71  19 1.71  10 1.71  88 1.73  96 1.73
  29  0.840  0.099  0.099- 109 1.49  53 1.71  22 1.71  15 1.71  81 1.73  89 1.73
  30  0.840  0.099  0.599- 110 1.49  54 1.71  21 1.71  16 1.71  82 1.73  90 1.73
  31  0.840  0.599  0.099- 111 1.49  55 1.71  24 1.71  13 1.71  83 1.73  91 1.73
  32  0.840  0.599  0.599- 112 1.49  56 1.71  23 1.71  14 1.71  84 1.73  92 1.73
  33  0.099  0.099  0.340- 105 1.49  57 1.71  21 1.71   3 1.71  74 1.73  90 1.73
  34  0.099  0.099  0.840- 106 1.49  58 1.71  22 1.71   4 1.71  73 1.73  89 1.73
  35  0.099  0.599  0.340- 107 1.49  59 1.71  23 1.71   1 1.71  76 1.73  92 1.73
  36  0.099  0.599  0.840- 108 1.49  60 1.71  24 1.71   2 1.71  75 1.73  91 1.73
  37  0.599  0.099  0.340- 109 1.49  61 1.71  17 1.71   7 1.71  78 1.73  94 1.73
  38  0.599  0.099  0.840- 110 1.49  62 1.71  18 1.71   8 1.71  77 1.73  93 1.73
  39  0.599  0.599  0.340- 111 1.49  63 1.71  19 1.71   5 1.71  80 1.73  96 1.73
  40  0.599  0.599  0.840- 112 1.49  64 1.71  20 1.71   6 1.71  79 1.73  95 1.73
  41  0.099  0.340  0.099- 105 1.49  65 1.71   2 1.71  13 1.71  83 1.73  75 1.73
  42  0.099  0.340  0.599- 106 1.49  66 1.71   1 1.71  14 1.71  84 1.73  76 1.73
  43  0.099  0.840  0.099- 107 1.49  67 1.71   4 1.71  15 1.71  81 1.73  73 1.73
  44  0.099  0.840  0.599- 108 1.49  68 1.71   3 1.71  16 1.71  82 1.73  74 1.73
  45  0.599  0.340  0.099- 109 1.49  69 1.71   6 1.71   9 1.71  87 1.73  79 1.73
  46  0.599  0.340  0.599- 110 1.49  70 1.71   5 1.71  10 1.71  88 1.73  80 1.73
  47  0.599  0.840  0.099- 111 1.49  71 1.71   8 1.71  11 1.71  85 1.73  77 1.73
  48  0.599  0.840  0.599- 112 1.49  72 1.71   7 1.71  12 1.71  86 1.73  78 1.73
  49  0.332  0.000  0.000-  73 1.64  25 1.71  11 1.73  18 1.73  62 1.80  71 1.80
  50  0.332  0.000  0.500-  74 1.64  26 1.71  12 1.73  17 1.73  61 1.80  72 1.80
  51  0.332  0.500  0.000-  75 1.64  27 1.71   9 1.73  20 1.73  64 1.80  69 1.80
  52  0.332  0.500  0.500-  76 1.64  28 1.71  10 1.73  19 1.73  63 1.80  70 1.80
  53  0.832  0.000  0.000-  77 1.64  29 1.71  15 1.73  22 1.73  58 1.80  67 1.80
  54  0.832  0.000  0.500-  78 1.64  30 1.71  16 1.73  21 1.73  57 1.80  68 1.80
  55  0.832  0.500  0.000-  79 1.64  31 1.71  13 1.73  24 1.73  60 1.80  65 1.80
  56  0.832  0.500  0.500-  80 1.64  32 1.71  14 1.73  23 1.73  59 1.80  66 1.80
  57  0.000  0.000  0.332-  81 1.64  33 1.71   3 1.73  21 1.73  54 1.80  68 1.80
  58  0.000  0.000  0.832-  82 1.64  34 1.71   4 1.73  22 1.73  53 1.80  67 1.80
  59  0.000  0.500  0.332-  83 1.64  35 1.71   1 1.73  23 1.73  56 1.80  66 1.80
  60  0.000  0.500  0.832-  84 1.64  36 1.71   2 1.73  24 1.73  55 1.80  65 1.80
  61  0.500  0.000  0.332-  85 1.64  37 1.71   7 1.73  17 1.73  50 1.80  72 1.80
  62  0.500  0.000  0.832-  86 1.64  38 1.71   8 1.73  18 1.73  49 1.80  71 1.80
  63  0.500  0.500  0.332-  87 1.64  39 1.71   5 1.73  19 1.73  52 1.80  70 1.80
  64  0.500  0.500  0.832-  88 1.64  40 1.71   6 1.73  20 1.73  51 1.80  69 1.80
  65  0.000  0.332  0.000-  89 1.64  41 1.71  13 1.73   2 1.73  60 1.80  55 1.80
  66  0.000  0.332  0.500-  90 1.64  42 1.71  14 1.73   1 1.73  59 1.80  56 1.80
  67  0.000  0.832  0.000-  91 1.64  43 1.71  15 1.73   4 1.73  58 1.80  53 1.80
  68  0.000  0.832  0.500-  92 1.64  44 1.71  16 1.73   3 1.73  57 1.80  54 1.80
  69  0.500  0.332  0.000-  93 1.64  45 1.71   9 1.73   6 1.73  64 1.80  51 1.80
  70  0.500  0.332  0.500-  94 1.64  46 1.71  10 1.73   5 1.73  63 1.80  52 1.80
  71  0.500  0.832  0.000-  95 1.64  47 1.71  11 1.73   8 1.73  62 1.80  49 1.80
  72  0.500  0.832  0.500-  96 1.64  48 1.71  12 1.73   7 1.73  61 1.80  50 1.80
  73  0.168  1.000  1.000-  49 1.64   4 1.71  34 1.73  43 1.73  81 1.80  89 1.80
  74  0.168  1.000  0.500-  50 1.64   3 1.71  33 1.73  44 1.73  82 1.80  90 1.80
  75  0.168  0.500  1.000-  51 1.64   2 1.71  36 1.73  41 1.73  83 1.80  91 1.80
  76  0.168  0.500  0.500-  52 1.64   1 1.71  35 1.73  42 1.73  84 1.80  92 1.80
  77  0.668  1.000  1.000-  53 1.64   8 1.71  38 1.73  47 1.73  85 1.80  93 1.80
  78  0.668  1.000  0.500-  54 1.64   7 1.71  37 1.73  48 1.73  86 1.80  94 1.80
  79  0.668  0.500  1.000-  55 1.64   6 1.71  40 1.73  45 1.73  87 1.80  95 1.80
  80  0.668  0.500  0.500-  56 1.64   5 1.71  39 1.73  46 1.73  88 1.80  96 1.80
  81  1.000  1.000  0.168-  57 1.64  15 1.71  29 1.73  43 1.73  73 1.80  89 1.80
  82  1.000  1.000  0.668-  58 1.64  16 1.71  30 1.73  44 1.73  74 1.80  90 1.80
  83  1.000  0.500  0.168-  59 1.64  13 1.71  31 1.73  41 1.73  75 1.80  91 1.80
  84  1.000  0.500  0.668-  60 1.64  14 1.71  32 1.73  42 1.73  76 1.80  92 1.80
  85  0.500  1.000  0.168-  61 1.64  11 1.71  25 1.73  47 1.73  77 1.80  93 1.80
  86  0.500  1.000  0.668-  62 1.64  12 1.71  26 1.73  48 1.73  78 1.80  94 1.80
  87  0.500  0.500  0.168-  63 1.64   9 1.71  27 1.73  45 1.73  79 1.80  95 1.80
  88  0.500  0.500  0.668-  64 1.64  10 1.71  28 1.73  46 1.73  80 1.80  96 1.80
  89  1.000  0.168  1.000-  65 1.64  22 1.71  34 1.73  29 1.73  81 1.80  73 1.80
  90  1.000  0.168  0.500-  66 1.64  21 1.71  33 1.73  30 1.73  82 1.80  74 1.80
  91  1.000  0.668  1.000-  67 1.64  24 1.71  36 1.73  31 1.73  83 1.80  75 1.80
  92  1.000  0.668  0.500-  68 1.64  23 1.71  35 1.73  32 1.73  84 1.80  76 1.80
  93  0.500  0.168  1.000-  69 1.64  18 1.71  38 1.73  25 1.73  85 1.80  77 1.80
  94  0.500  0.168  0.500-  70 1.64  17 1.71  37 1.73  26 1.73  86 1.80  78 1.80
  95  0.500  0.668  1.000-  71 1.64  20 1.71  40 1.73  27 1.73  87 1.80  79 1.80
  96  0.500  0.668  0.500-  72 1.64  19 1.71  39 1.73  28 1.73  88 1.80  80 1.80
  97  0.315  0.315  0.315-   9 1.49   1 1.49  17 1.49
  98  0.315  0.315  0.815-  10 1.49   2 1.49  18 1.49
  99  0.315  0.815  0.315-  11 1.49   3 1.49  19 1.49
 100  0.315  0.815  0.815-  12 1.49   4 1.49  20 1.49
 101  0.815  0.315  0.315-  13 1.49   5 1.49  21 1.49
 102  0.815  0.315  0.815-  14 1.49   6 1.49  22 1.49
 103  0.815  0.815  0.315-  15 1.49   7 1.49  23 1.49
 104  0.815  0.815  0.815-  16 1.49   8 1.49  24 1.49
 105  0.185  0.185  0.185-  33 1.49  25 1.49  41 1.49
 106  0.185  0.185  0.685-  34 1.49  26 1.49  42 1.49
 107  0.185  0.685  0.185-  35 1.49  27 1.49  43 1.49
 108  0.185  0.685  0.685-  36 1.49  28 1.49  44 1.49
 109  0.685  0.185  0.185-  37 1.49  29 1.49  45 1.49
 110  0.685  0.185  0.685-  38 1.49  30 1.49  46 1.49
 111  0.685  0.685  0.185-  39 1.49  31 1.49  47 1.49
 112  0.685  0.685  0.685-  40 1.49  32 1.49  48 1.49
 
  LATTYP: Found a trigonal (rhomboedric) cell.
 ALAT       =     9.9678688563
 COS(alpha) =     0.4242225596
  
  Lattice vectors:
  
 A1 = (   9.0658750000,   0.0698060000,   4.1428810000)
 A2 = (   2.6894530000,   8.6580500000,   4.1428810000)
 A3 = (   0.0940190000,   0.0698060000,   9.9671810000)


Analysis of symmetry for initial positions (statically):
=====================================================================
 Subroutine PRICEL returns following result:
 
  LATTYP: Found a trigonal (rhomboedric) cell.
 ALAT       =     4.9839344282
 COS(alpha) =     0.4242225596
  
  Lattice vectors:
  
 A1 = (   4.5329375000,   0.0349030000,   2.0714405000)
 A2 = (   1.3447265000,   4.3290250000,   2.0714405000)
 A3 = (   0.0470095000,   0.0349030000,   4.9835905000)
 
   8 primitive cells build up your supercell.
 

 Routine SETGRP: Setting up the symmetry group for a 
 trigonal (rhombohedral) supercell.


 Subroutine GETGRP returns: Found 12 space group operations
 (whereof 12 operations were pure point group operations)
 out of a pool of 12 trial point group operations.


The static configuration has the point symmetry D_3d.


Analysis of symmetry for dynamics (positions and initial velocities):
=====================================================================
 Subroutine PRICEL returns following result:
 
  LATTYP: Found a trigonal (rhomboedric) cell.
 ALAT       =     4.9839344282
 COS(alpha) =     0.4242225596
  
  Lattice vectors:
  
 A1 = (   4.5329375000,   0.0349030000,   2.0714405000)
 A2 = (   1.3447265000,   4.3290250000,   2.0714405000)
 A3 = (   0.0470095000,   0.0349030000,   4.9835905000)
 
   8 primitive cells build up your supercell.
 

 Routine SETGRP: Setting up the symmetry group for a 
 trigonal (rhombohedral) supercell.


 Subroutine GETGRP returns: Found 12 space group operations
 (whereof 12 operations were pure point group operations)
 out of a pool of 12 trial point group operations.


The dynamic configuration has the point symmetry D_3d.


 Subroutine INISYM returns: Found 12 space group operations
 (whereof 12 operations are pure point group operations),
 and found     8 'primitive' translations


----------------------------------------------------------------------------------------

                                     Primitive cell                                     

  volume of cell :      96.9114

  direct lattice vectors                    reciprocal lattice vectors
     4.532937500  0.034903000  2.071440500     0.221870508 -0.068146645 -0.001615602
     1.344726500  4.329025000  2.071440500    -0.001048821  0.232097769 -0.001615623
     0.047009500  0.034903000  4.983590500    -0.091785026 -0.068146650  0.202001607

  length of vectors
     4.983934825  4.983935449  4.983934428     0.232105790  0.232105762  0.232105808

  position of ions in fractional coordinates (direct lattice)
     0.320790000  0.801030000  0.801030000
     0.801030000  0.801030000  0.320790000
     0.801030000  0.320790000  0.801030000
     0.679210000  0.198970000  0.198970000
     0.198970000  0.198970000  0.679210000
     0.198970000  0.679210000  0.198970000
     0.664586000  0.000230000  0.000230000
     0.000230000  0.000230000  0.664586000
     0.000230000  0.664586000  0.000230000
     0.335414000  0.999770000  0.999770000
     0.999770000  0.999770000  0.335414000
     0.999770000  0.335414000  0.999770000
     0.630794000  0.630794000  0.630794000
     0.369206000  0.369206000  0.369206000

  ion indices of the primitive-cell ions
   primitive index   ion index
                 1           1
                 2           9
                 3          17
                 4          28
                 5          35
                 6          42
                 7          52
                 8          59
                 9          66
                10          76
                11          83
                12          90
                13          97
                14         105

----------------------------------------------------------------------------------------

 
 -----------------------------------------------------------------------------
|                                                                             |
|           W    W    AA    RRRRR   N    N  II  N    N   GGGG   !!!           |
|           W    W   A  A   R    R  NN   N  II  NN   N  G    G  !!!           |
|           W    W  A    A  R    R  N N  N  II  N N  N  G       !!!           |
|           W WW W  AAAAAA  RRRRR   N  N N  II  N  N N  G  GGG   !            |
|           WW  WW  A    A  R   R   N   NN  II  N   NN  G    G                |
|           W    W  A    A  R    R  N    N  II  N    N   GGGG   !!!           |
|                                                                             |
|     The requested file  could not be found or opened for reading            |
|     k-point information. Automatic k-point generation is used as a          |
|     fallback, which may lead to unwanted results.                           |
|                                                                             |
 -----------------------------------------------------------------------------

 

Automatic generation of k-mesh.
 Grid dimensions derived from KSPACING:
 generate k-points for:    2    2    2

 Generating k-lattice:

  Cartesian coordinates                     Fractional coordinates (reciprocal lattice)
     0.055467627 -0.017036661 -0.000403901     0.500000000  0.000000000  0.000000000
    -0.000262205  0.058024442 -0.000403906    -0.000000000  0.500000000  0.000000000
    -0.022946257 -0.017036663  0.050500402    -0.000000000 -0.000000000  0.500000000

  Length of vectors
     0.058026447  0.058026440  0.058026452

  Shift w.r.t. Gamma in fractional coordinates (k-lattice)
     0.000000000  0.000000000  0.000000000

 TETIRR: Found      4 inequivalent tetrahedra from       48
 
 Subroutine IBZKPT returns following result:
 ===========================================
 
 Found      4 irreducible k-points:
 
 Following reciprocal coordinates:
            Coordinates               Weight
  0.000000  0.000000  0.000000      1.000000
  0.500000  0.000000  0.000000      3.000000
  0.500000  0.500000  0.000000      3.000000
  0.500000  0.500000  0.500000      1.000000
 
 Following cartesian coordinates:
            Coordinates               Weight
  0.000000  0.000000  0.000000      1.000000
  0.055468 -0.017037 -0.000404      3.000000
  0.055205  0.040988 -0.000808      3.000000
  0.032259  0.023951  0.049693      1.000000
 


--------------------------------------------------------------------------------------------------------




 Dimension of arrays:
   k-points           NKPTS =      4   k-points in BZ     NKDIM =      4   number of bands    NBANDS=    233
   number of dos      NEDOS =    301   number of ions     NIONS =    112
   non local maximal  LDIM  =      4   non local SUM 2l+1 LMDIM =      8
   total plane-waves  NPLWV = 729000
   max r-space proj   IRMAX =   5890   max aug-charges    IRDMAX=  14861
   dimension x,y,z NGX =    90 NGY =   90 NGZ =   90
   dimension x,y,z NGXF=   180 NGYF=  180 NGZF=  180
   support grid    NGXF=   180 NGYF=  180 NGZF=  180
   ions per type =              96  16
   NGX,Y,Z   is equivalent  to a cutoff of  15.01, 15.01, 15.01 a.u.
   NGXF,Y,Z  is equivalent  to a cutoff of  30.02, 30.02, 30.02 a.u.

 SYSTEM =  unknown system                          
 POSCAR =  B96 C16                                 

 Startparameter for this run:
   NWRITE =      2    write-flag & timer
   PREC   = accura    normal or accurate (medium, high low for compatibility)
   ISTART =      0    job   : 0-new  1-cont  2-samecut
   ICHARG =      2    charge: 1-file 2-atom 10-const
   ISPIN  =      1    spin polarized calculation?
   LNONCOLLINEAR =      F non collinear calculations
   LSORBIT =      F    spin-orbit coupling
   INIWAV =      1    electr: 0-lowe 1-rand  2-diag
   LASPH  =      F    aspherical Exc in radial PAW
   METAGGA=      F    non-selfconsistent MetaGGA calc.

 Electronic Relaxation 1
   ENCUT  =  700.0 eV  51.45 Ry    7.17 a.u.  21.50 21.50 21.50*2*pi/ulx,y,z
   ENINI  =  700.0     initial cutoff
   ENAUG  =  644.9 eV  augmentation charge cutoff
   NELM   =     60;   NELMIN=  2; NELMDL= -5     # of ELM steps 
   EDIFF  = 0.1E-05   stopping-criterion for ELM
   LREAL  =      T    real-space projection
   NLSPLINE    = F    spline interpolate recip. space projectors
   LCOMPAT=      F    compatible to vasp.4.4
   GGA_COMPAT  = T    GGA compatible to vasp.4.4-vasp.4.6
   LMAXPAW     = -100 max onsite density
   LMAXMIX     =    2 max onsite mixed and CHGCAR
   VOSKOWN=      0    Vosko Wilk Nusair interpolation
   ROPT   =   -0.00025  -0.00025
 Ionic relaxation
   EDIFFG = 0.1E-04   stopping-criterion for IOM
   NSW    =    300    number of steps for IOM
   NBLOCK =      1;   KBLOCK =    300    inner block; outer block 
   IBRION =      2    ionic relax: 0-MD 1-quasi-New 2-CG
   NFREE  =      1    steps in history (QN), initial steepest desc. (CG)
   ISIF   =      4    stress and relaxation
   IWAVPR =     11    prediction:  0-non 1-charg 2-wave 3-comb
   ISYM   =      2    0-nonsym 1-usesym 2-fastsym
   LCORR  =      T    Harris-Foulkes like correction to forces

   POTIM  = 0.5000    time-step for ionic-motion
   TEIN   =    0.0    initial temperature
   TEBEG  =    0.0;   TEEND  =   0.0 temperature during run
   SMASS  =  -3.00    Nose mass-parameter (am)
   estimated Nose-frequenzy (Omega)   =  0.10E-29 period in steps = 0.13E+47 mass=  -0.227E-26a.u.
   SCALEE = 1.0000    scale energy and forces
   NPACO  =    256;   APACO  = 16.0  distance and # of slots for P.C.
   PSTRESS=    0.0 pullay stress

  Mass of Ions in am
   POMASS =  10.81 12.01
  Ionic Valenz
   ZVAL   =   3.00  4.00
  Atomic Wigner-Seitz radii
   RWIGS  =  -1.00 -1.00
  virtual crystal weights 
   VCA    =   1.00  1.00
   NELECT =     352.0000    total number of electrons
   NUPDOWN=      -1.0000    fix difference up-down

 DOS related values:
   EMIN   =  10.00;   EMAX   =-10.00  energy-range for DOS
   EFERMI =   0.00
   ISMEAR =    -5;   SIGMA  =   0.05  broadening in eV -4-tet -1-fermi 0-gaus

 Electronic relaxation 2 (details)
   IALGO  =     68    algorithm
   LDIAG  =      T    sub-space diagonalisation (order eigenvalues)
   LSUBROT=      F    optimize rotation matrix (better conditioning)
   TURBO    =      0    0=normal 1=particle mesh
   IRESTART =      0    0=no restart 2=restart with 2 vectors
   NREBOOT  =      0    no. of reboots
   NMIN     =      0    reboot dimension
   EREF     =   0.00    reference energy to select bands
   IMIX   =      4    mixing-type and parameters
     AMIX     =   0.40;   BMIX     =  1.00
     AMIX_MAG =   1.60;   BMIX_MAG =  1.00
     AMIN     =   0.10
     WC   =   100.;   INIMIX=   1;  MIXPRE=   1;  MAXMIX= -45

 Intra band minimization:
   WEIMIN = 0.0010     energy-eigenvalue tresh-hold
   EBREAK =  0.11E-08  absolut break condition
   DEPER  =   0.30     relativ break condition  

   TIME   =   0.40     timestep for ELM

  volume/ion in A,a.u.               =       6.92        46.71
  Fermi-wavevector in a.u.,A,eV,Ry     =   1.258251  2.377750 21.540694  1.583196
  Thomas-Fermi vector in A             =   2.391870
 
 Write flags
   LWAVE        =      F    write WAVECAR
   LDOWNSAMPLE  =      F    k-point downsampling of WAVECAR
   LCHARG       =      T    write CHGCAR
   LVTOT        =      F    write LOCPOT, total local potential
   LVHAR        =      F    write LOCPOT, Hartree potential only
   LELF         =      F    write electronic localiz. function (ELF)
   LORBIT       =      0    0 simple, 1 ext, 2 COOP (PROOUT), +10 PAW based schemes


 Dipole corrections
   LMONO  =      F    monopole corrections only (constant potential shift)
   LDIPOL =      F    correct potential (dipole corrections)
   IDIPOL =      0    1-x, 2-y, 3-z, 4-all directions 
   EPSILON=  1.0000000 bulk dielectric constant

 Exchange correlation treatment:
   GGA     =    --    GGA type
   LEXCH   =     8    internal setting for exchange type
   VOSKOWN=      0    Vosko Wilk Nusair interpolation
   LHFCALC =     F    Hartree Fock is set to
   LHFONE  =     F    Hartree Fock one center treatment
   AEXX    =    0.0000 exact exchange contribution

 Linear response parameters
   LEPSILON=     F    determine dielectric tensor
   LRPA    =     F    only Hartree local field effects (RPA)
   LNABLA  =     F    use nabla operator in PAW spheres
   LVEL    =     F    velocity operator in full k-point grid
   LINTERFAST=   F  fast interpolation
   KINTER  =     0    interpolate to denser k-point grid
   CSHIFT  =0.1000    complex shift for real part using Kramers Kronig
   OMEGAMAX=  -1.0    maximum frequency
   DEG_THRESHOLD= 0.2000000E-02 threshold for treating states as degnerate
   RTIME   =   -0.100 relaxation time in fs
  (WPLASMAI=    0.000 imaginary part of plasma frequency in eV, 0.658/RTIME)
   DFIELD  = 0.0000000 0.0000000 0.0000000 field for delta impulse in time
 
 Orbital magnetization related:
   ORBITALMAG=     F  switch on orbital magnetization
   LCHIMAG   =     F  perturbation theory with respect to B field
   DQ        =  0.001000  dq finite difference perturbation B field
   LLRAUG    =     F  two centre corrections for induced B field



--------------------------------------------------------------------------------------------------------


 conjugate gradient relaxation of ions
 charge density and potential will be updated during run
 non-spin polarized calculation
 RMM-DIIS sequential band-by-band and
  variant of blocked Davidson during initial phase
 perform sub-space diagonalisation
    before iterative eigenvector-optimisation
 modified Broyden-mixing scheme, WC =      100.0
 initial mixing is a Kerker type mixing with AMIX =  0.4000 and BMIX =      1.0000
 Hartree-type preconditioning will be used
 using additional bands            57
 real space projection scheme for non local part
 use partial core corrections
 calculate Harris-corrections to forces 
   (improved forces if not selfconsistent)
 use gradient corrections 
 use of overlap-Matrix (Vanderbilt PP)
 Fermi weights with tetrahedron method with Bloechl corrections


--------------------------------------------------------------------------------------------------------


  energy-cutoff  :      700.00
  volume of cell :      775.29
      direct lattice vectors                 reciprocal lattice vectors
     9.065875000  0.069806000  4.142881000     0.110935254 -0.034073322 -0.000807801
     2.689453000  8.658050000  4.142881000    -0.000524411  0.116048885 -0.000807812
     0.094019000  0.069806000  9.967181000    -0.045892513 -0.034073325  0.101000804

  length of vectors
     9.967869651  9.967870897  9.967868856     0.116052895  0.116052881  0.116052904


 
 k-points in units of 2pi/SCALE and weight: read from INCAR                         
   0.00000000  0.00000000  0.00000000       0.125
   0.05546763 -0.01703666 -0.00040390       0.375
   0.05520542  0.04098778 -0.00080781       0.375
   0.03225917  0.02395112  0.04969260       0.125
 
 k-points in reciprocal lattice and weights: read from INCAR                         
   0.00000000  0.00000000  0.00000000       0.125
   0.50000000  0.00000000  0.00000000       0.375
   0.50000000  0.50000000  0.00000000       0.375
   0.50000000  0.50000000  0.50000000       0.125
 
 position of ions in fractional coordinates (direct lattice) 
   0.16039500  0.40051500  0.40051500
   0.16039500  0.40051500  0.90051500
   0.16039500  0.90051500  0.40051500
   0.16039500  0.90051500  0.90051500
   0.66039500  0.40051500  0.40051500
   0.66039500  0.40051500  0.90051500
   0.66039500  0.90051500  0.40051500
   0.66039500  0.90051500  0.90051500
   0.40051500  0.40051500  0.16039500
   0.40051500  0.40051500  0.66039500
   0.40051500  0.90051500  0.16039500
   0.40051500  0.90051500  0.66039500
   0.90051500  0.40051500  0.16039500
   0.90051500  0.40051500  0.66039500
   0.90051500  0.90051500  0.16039500
   0.90051500  0.90051500  0.66039500
   0.40051500  0.16039500  0.40051500
   0.40051500  0.16039500  0.90051500
   0.40051500  0.66039500  0.40051500
   0.40051500  0.66039500  0.90051500
   0.90051500  0.16039500  0.40051500
   0.90051500  0.16039500  0.90051500
   0.90051500  0.66039500  0.40051500
   0.90051500  0.66039500  0.90051500
   0.33960500  0.09948500  0.09948500
   0.33960500  0.09948500  0.59948500
   0.33960500  0.59948500  0.09948500
   0.33960500  0.59948500  0.59948500
   0.83960500  0.09948500  0.09948500
   0.83960500  0.09948500  0.59948500
   0.83960500  0.59948500  0.09948500
   0.83960500  0.59948500  0.59948500
   0.09948500  0.09948500  0.33960500
   0.09948500  0.09948500  0.83960500
   0.09948500  0.59948500  0.33960500
   0.09948500  0.59948500  0.83960500
   0.59948500  0.09948500  0.33960500
   0.59948500  0.09948500  0.83960500
   0.59948500  0.59948500  0.33960500
   0.59948500  0.59948500  0.83960500
   0.09948500  0.33960500  0.09948500
   0.09948500  0.33960500  0.59948500
   0.09948500  0.83960500  0.09948500
   0.09948500  0.83960500  0.59948500
   0.59948500  0.33960500  0.09948500
   0.59948500  0.33960500  0.59948500
   0.59948500  0.83960500  0.09948500
   0.59948500  0.83960500  0.59948500
   0.33229300  0.00011500  0.00011500
   0.33229300  0.00011500  0.50011500
   0.33229300  0.50011500  0.00011500
   0.33229300  0.50011500  0.50011500
   0.83229300  0.00011500  0.00011500
   0.83229300  0.00011500  0.50011500
   0.83229300  0.50011500  0.00011500
   0.83229300  0.50011500  0.50011500
   0.00011500  0.00011500  0.33229300
   0.00011500  0.00011500  0.83229300
   0.00011500  0.50011500  0.33229300
   0.00011500  0.50011500  0.83229300
   0.50011500  0.00011500  0.33229300
   0.50011500  0.00011500  0.83229300
   0.50011500  0.50011500  0.33229300
   0.50011500  0.50011500  0.83229300
   0.00011500  0.33229300  0.00011500
   0.00011500  0.33229300  0.50011500
   0.00011500  0.83229300  0.00011500
   0.00011500  0.83229300  0.50011500
   0.50011500  0.33229300  0.00011500
   0.50011500  0.33229300  0.50011500
   0.50011500  0.83229300  0.00011500
   0.50011500  0.83229300  0.50011500
   0.16770700  0.99988500  0.99988500
   0.16770700  0.99988500  0.49988500
   0.16770700  0.49988500  0.99988500
   0.16770700  0.49988500  0.49988500
   0.66770700  0.99988500  0.99988500
   0.66770700  0.99988500  0.49988500
   0.66770700  0.49988500  0.99988500
   0.66770700  0.49988500  0.49988500
   0.99988500  0.99988500  0.16770700
   0.99988500  0.99988500  0.66770700
   0.99988500  0.49988500  0.16770700
   0.99988500  0.49988500  0.66770700
   0.49988500  0.99988500  0.16770700
   0.49988500  0.99988500  0.66770700
   0.49988500  0.49988500  0.16770700
   0.49988500  0.49988500  0.66770700
   0.99988500  0.16770700  0.99988500
   0.99988500  0.16770700  0.49988500
   0.99988500  0.66770700  0.99988500
   0.99988500  0.66770700  0.49988500
   0.49988500  0.16770700  0.99988500
   0.49988500  0.16770700  0.49988500
   0.49988500  0.66770700  0.99988500
   0.49988500  0.66770700  0.49988500
   0.31539700  0.31539700  0.31539700
   0.31539700  0.31539700  0.81539700
   0.31539700  0.81539700  0.31539700
   0.31539700  0.81539700  0.81539700
   0.81539700  0.31539700  0.31539700
   0.81539700  0.31539700  0.81539700
   0.81539700  0.81539700  0.31539700
   0.81539700  0.81539700  0.81539700
   0.18460300  0.18460300  0.18460300
   0.18460300  0.18460300  0.68460300
   0.18460300  0.68460300  0.18460300
   0.18460300  0.68460300  0.68460300
   0.68460300  0.18460300  0.18460300
   0.68460300  0.18460300  0.68460300
   0.68460300  0.68460300  0.18460300
   0.68460300  0.68460300  0.68460300
 
 position of ions in cartesian coordinates  (Angst):
   2.56894331  3.50683378  6.31578888
   2.61595281  3.54173678 11.29937938
   3.91366981  7.83585878  8.38722938
   3.96067931  7.87076178 13.37081988
   7.10188081  3.54173678  8.38722938
   7.14889031  3.57663978 13.37081988
   8.44660731  7.87076178 10.45866988
   8.49361681  7.90566478 15.44226038
   4.72326537  3.50683378  4.91725796
   4.77027487  3.54173678  9.90084846
   6.06799187  7.83585878  6.98869846
   6.11500137  7.87076178 11.97228896
   9.25620287  3.54173678  6.98869846
   9.30321237  3.57663978 11.97228896
  10.60092937  7.87076178  9.06013896
  10.64793887  7.90566478 14.04372946
   4.10004976  1.44462463  6.31578888
   4.14705926  1.47952763 11.29937938
   5.44477626  5.77364963  8.38722938
   5.49178576  5.80855263 13.37081988
   8.63298726  1.47952763  8.38722938
   8.67999676  1.51443063 13.37081988
   9.97771376  5.80855263 10.45866988
  10.02472326  5.84345563 15.44226038
   3.35573019  0.89199722  2.81068262
   3.40273969  0.92690022  7.79427312
   4.70045669  5.22102222  4.88212312
   4.74746619  5.25592522  9.86571362
   7.88866769  0.92690022  4.88212312
   7.93567719  0.96180322  9.86571362
   9.23339419  5.25592522  6.95356362
   9.28040369  5.29082822 11.93715412
   1.20140813  0.89199722  4.20921354
   1.24841763  0.92690022  9.19280404
   2.54613463  5.22102222  6.28065404
   2.59314413  5.25592522 11.26424454
   5.73434563  0.92690022  6.28065404
   5.78135513  0.96180322 11.26424454
   7.07907213  5.25592522  8.35209454
   7.12608163  5.29082822 13.33568504
   1.82462374  2.95420637  2.81068262
   1.87163324  2.98910937  7.79427312
   3.16935024  7.28323137  4.88212312
   3.21635974  7.31813437  9.86571362
   6.35756124  2.98910937  4.88212312
   6.40457074  3.02401237  9.86571362
   7.70228774  7.31813437  6.95356362
   7.74929724  7.35303737 11.93715412
   3.01284690  0.02419975  1.37827301
   3.05985640  0.05910275  6.36186351
   4.35757340  4.35322475  3.44971351
   4.40458290  4.38812775  8.43330401
   7.54578440  0.05910275  3.44971351
   7.59279390  0.09400575  8.43330401
   8.89051090  4.38812775  5.52115401
   8.93752040  4.42303075 10.50474451
   0.03259372  0.02419975  3.31297734
   0.07960322  0.05910275  8.29656784
   1.37732022  4.35322475  5.38441784
   1.42432972  4.38812775 10.36800834
   4.56553122  0.05910275  5.38441784
   4.61254072  0.09400575 10.36800834
   5.91025772  4.38812775  7.45585834
   5.95726722  4.42303075 12.43944884
   0.89473979  2.87702546  1.37827301
   0.94174929  2.91192846  6.36186351
   2.23946629  7.20605046  3.44971351
   2.28647579  7.24095346  8.43330401
   5.42767729  2.91192846  3.44971351
   5.47468679  2.94683146  8.43330401
   6.77240379  7.24095346  5.52115401
   6.81941329  7.27585646 10.50474451
   4.30356260  8.73855925 14.80322949
   4.25655310  8.70365625  9.81963899
   2.95883610  4.40953425 12.73178899
   2.91182660  4.37463125  7.74819849
   8.83650010  8.77346225 16.87466999
   8.78949060  8.73855925 11.89107949
   7.49177360  4.44443725 14.80322949
   7.44476410  4.40953425  9.81963899
  11.76974378  8.73855925  9.95637516
  11.81675328  8.77346225 14.93996566
  10.42501728  4.40953425  7.88493466
  10.47202678  4.44443725 12.86852516
   7.23680628  8.70365625  7.88493466
   7.28381578  8.73855925 12.86852516
   5.89207978  4.37463125  5.81349416
   5.93908928  4.40953425 10.79708466
   9.60988071  1.59161154 14.80322949
   9.56287121  1.55670854  9.81963899
  10.95460721  5.92063654 16.87466999
  10.90759771  5.88573354 11.89107949
   5.07694321  1.55670854 12.73178899
   5.02993371  1.52180554  7.74819849
   6.42166971  5.88573354 14.80322949
   6.37466021  5.85083054  9.81963899
   3.73724850  2.77475620  5.75692346
   3.78425800  2.80965920 10.74051396
   5.08197500  7.10378120  7.82836396
   5.12898450  7.13868420 12.81195446
   8.27018600  2.80965920  7.82836396
   8.31719550  2.84456220 12.81195446
   9.61491250  7.13868420  9.89980446
   9.66192200  7.17358720 14.88339496
   2.18742500  1.62407480  3.36954804
   2.23443450  1.65897780  8.35313854
   3.53215150  5.95309980  5.44098854
   3.57916100  5.98800280 10.42457904
   6.72036250  1.65897780  5.44098854
   6.76737200  1.69388080 10.42457904
   8.06508900  5.98800280  7.51242904
   8.11209850  6.02290580 12.49601954
 


--------------------------------------------------------------------------------------------------------


 k-point   1 :   0.0000 0.0000 0.0000  plane waves:   32619
 k-point   2 :   0.5000 0.0000 0.0000  plane waves:   32586
 k-point   3 :   0.5000 0.5000 0.0000  plane waves:   32606
 k-point   4 :   0.5000 0.5000 0.5000  plane waves:   32458

 maximum and minimum number of plane-waves per node :     32619    32458

 maximum number of plane-waves:     32619
 maximum index in each direction: 
   IXMAX=   21   IYMAX=   21   IZMAX=   21
   IXMIN=  -22   IYMIN=  -21   IZMIN=  -21


 serial   3D FFT for wavefunctions
 parallel 3D FFT for charge:
    minimum data exchange during FFTs selected (reduces bandwidth)


 total amount of memory used by VASP MPI-rank0  1143956. kBytes
=======================================================================

   base      :      30000. kBytes
   nonlr-proj:      54748. kBytes
   fftplans  :     200616. kBytes
   grid      :     358473. kBytes
   one-center:        344. kBytes
   wavefun   :     499775. kBytes
 
     INWAV:  cpu time    0.0002: real time    0.0002
 Broyden mixing: mesh for mixing (old mesh)
   NGX = 43   NGY = 43   NGZ = 43
  (NGX  =180   NGY  =180   NGZ  =180)
  gives a total of  79507 points

 initial charge density was supplied:
 charge density of overlapping atoms calculated
 number of electron     352.0000000 magnetization 
 keeping initial charge density in first step


--------------------------------------------------------------------------------------------------------


 Maximum index for non-local projection operator          5673
 Maximum index for augmentation-charges         14186 (set IRDMAX)


--------------------------------------------------------------------------------------------------------


 First call to EWALD:  gamma=   0.193
 Maximum number of real-space cells 3x 3x 3
 Maximum number of reciprocal cells 3x 3x 3

    FEWALD:  cpu time    0.0678: real time    0.0680


--------------------------------------- Iteration      1(   1)  ---------------------------------------


    POTLOK:  cpu time    0.1417: real time    0.1420
    SETDIJ:  cpu time    0.1213: real time    0.1215
     EDDAV:  cpu time    3.0737: real time    3.0738
 BZINTS: Fermi energy:   17.861360;  352.000000 electrons
         Band energy: 0.149931E+04;  BLOECHL correction:   -0.036380
       DOS:  cpu time    0.0039: real time    0.0039
    --------------------------------------------
      LOOP:  cpu time    3.3406: real time    3.3412

 eigenvalue-minimisations  :  1864
 total energy-change (2. order) : 0.1467755E+04  (-0.2020448E+05)
 number of electron     352.0000000 magnetization 
 augmentation part      352.0000000 magnetization 

 Free energy of the ion-electron system (eV)
  ---------------------------------------------------
  alpha Z        PSCENC =      1148.69131244
  Ewald energy   TEWEN  =    -10395.28541032
  -Hartree energ DENC   =      -970.87163020
  -exchange      EXHF   =         0.00000000
  -V(xc)+E(xc)   XCENC  =       926.15980560
  PAW double counting   =      5912.33983061    -5839.33960861
  entropy T*S    EENTRO =         0.00000000
  eigenvalues    EBANDS =      1499.30573030
  atomic energy  EATOM  =      9186.75495500
  Solvation  Ediel_sol  =         0.00000000
  ---------------------------------------------------
  free energy    TOTEN  =      1467.75498483 eV

  energy without entropy =     1467.75498483  energy(sigma->0) =     1467.75498483


--------------------------------------------------------------------------------------------------------




--------------------------------------- Iteration      1(   2)  ---------------------------------------


     EDDAV:  cpu time    3.5827: real time    3.5864
 BZINTS: Fermi energy:    4.675337;  352.000000 electrons
         Band energy:-0.685886E+03;  BLOECHL correction:    0.000000
       DOS:  cpu time    0.0036: real time    0.0036
    --------------------------------------------
      LOOP:  cpu time    3.5863: real time    3.5900

 eigenvalue-minimisations  :  2308
 total energy-change (2. order) :-0.2185192E+04  (-0.2060949E+04)
 number of electron     352.0000000 magnetization 
 augmentation part      352.0000000 magnetization 

 Free energy of the ion-electron system (eV)
  ---------------------------------------------------
  alpha Z        PSCENC =      1148.69131244
  Ewald energy   TEWEN  =    -10395.28541032
  -Hartree energ DENC   =      -970.87163020
  -exchange      EXHF   =         0.00000000
  -V(xc)+E(xc)   XCENC  =       926.15980560
  PAW double counting   =      5912.33983061    -5839.33960861
  entropy T*S    EENTRO =         0.00000000
  eigenvalues    EBANDS =      -685.88649792
  atomic energy  EATOM  =      9186.75495500
  Solvation  Ediel_sol  =         0.00000000
  ---------------------------------------------------
  free energy    TOTEN  =      -717.43724339 eV

  energy without entropy =     -717.43724339  energy(sigma->0) =     -717.43724339


--------------------------------------------------------------------------------------------------------




--------------------------------------- Iteration      1(   3)  ---------------------------------------


     EDDAV:  cpu time    3.4545: real time    3.4621
 BZINTS: Fermi energy:    3.868686;  352.000000 electrons
         Band energy:-0.811908E+03;  BLOECHL correction:   -0.000000
       DOS:  cpu time    0.0040: real time    0.0040
    --------------------------------------------
      LOOP:  cpu time    3.4585: real time    3.4662

 eigenvalue-minimisations  :  2200
 total energy-change (2. order) :-0.1260217E+03  (-0.1227417E+03)
 number of electron     352.0000000 magnetization 
 augmentation part      352.0000000 magnetization 

 Free energy of the ion-electron system (eV)
  ---------------------------------------------------
  alpha Z        PSCENC =      1148.69131244
  Ewald energy   TEWEN  =    -10395.28541032
  -Hartree energ DENC   =      -970.87163020
  -exchange      EXHF   =         0.00000000
  -V(xc)+E(xc)   XCENC  =       926.15980560
  PAW double counting   =      5912.33983061    -5839.33960861
  entropy T*S    EENTRO =         0.00000000
  eigenvalues    EBANDS =      -811.90817338
  atomic energy  EATOM  =      9186.75495500
  Solvation  Ediel_sol  =         0.00000000
  ---------------------------------------------------
  free energy    TOTEN  =      -843.45891886 eV

  energy without entropy =     -843.45891886  energy(sigma->0) =     -843.45891886


--------------------------------------------------------------------------------------------------------




--------------------------------------- Iteration      1(   4)  ---------------------------------------


     EDDAV:  cpu time    3.4107: real time    3.4236
 BZINTS: Fermi energy:    3.843838;  352.000000 electrons
         Band energy:-0.814450E+03;  BLOECHL correction:   -0.000000
       DOS:  cpu time    0.0040: real time    0.0040
    --------------------------------------------
      LOOP:  cpu time    3.4147: real time    3.4276

 eigenvalue-minimisations  :  2160
 total energy-change (2. order) :-0.2541802E+01  (-0.2529120E+01)
 number of electron     352.0000000 magnetization 
 augmentation part      352.0000000 magnetization 

 Free energy of the ion-electron system (eV)
  ---------------------------------------------------
  alpha Z        PSCENC =      1148.69131244
  Ewald energy   TEWEN  =    -10395.28541032
  -Hartree energ DENC   =      -970.87163020
  -exchange      EXHF   =         0.00000000
  -V(xc)+E(xc)   XCENC  =       926.15980560
  PAW double counting   =      5912.33983061    -5839.33960861
  entropy T*S    EENTRO =         0.00000000
  eigenvalues    EBANDS =      -814.44997583
  atomic energy  EATOM  =      9186.75495500
  Solvation  Ediel_sol  =         0.00000000
  ---------------------------------------------------
  free energy    TOTEN  =      -846.00072131 eV

  energy without entropy =     -846.00072131  energy(sigma->0) =     -846.00072131


--------------------------------------------------------------------------------------------------------




--------------------------------------- Iteration      1(   5)  ---------------------------------------


     EDDAV:  cpu time    3.4070: real time    3.4152
 BZINTS: Fermi energy:    3.842775;  352.000000 electrons
         Band energy:-0.814509E+03;  BLOECHL correction:    0.000000
       DOS:  cpu time    0.0040: real time    0.0040
    CHARGE:  cpu time    1.4670: real time    1.4666
    MIXING:  cpu time    0.0569: real time    0.0569
    --------------------------------------------
      LOOP:  cpu time    4.9350: real time    4.9427

 eigenvalue-minimisations  :  2159
 total energy-change (2. order) :-0.5950480E-01  (-0.5939205E-01)
 number of electron     351.9999997 magnetization 
 augmentation part        1.0250246 magnetization 

 Broyden mixing:
  rms(total) = 0.43597E+01    rms(broyden)= 0.43596E+01
  rms(prec ) = 0.60044E+01
  weight for this iteration     100.00

 Free energy of the ion-electron system (eV)
  ---------------------------------------------------
  alpha Z        PSCENC =      1148.69131244
  Ewald energy   TEWEN  =    -10395.28541032
  -Hartree energ DENC   =      -970.87163020
  -exchange      EXHF   =         0.00000000
  -V(xc)+E(xc)   XCENC  =       926.15980560
  PAW double counting   =      5912.33983061    -5839.33960861
  entropy T*S    EENTRO =         0.00000000
  eigenvalues    EBANDS =      -814.50948064
  atomic energy  EATOM  =      9186.75495500
  Solvation  Ediel_sol  =         0.00000000
  ---------------------------------------------------
  free energy    TOTEN  =      -846.06022611 eV

  energy without entropy =     -846.06022611  energy(sigma->0) =     -846.06022611


--------------------------------------------------------------------------------------------------------




--------------------------------------- Iteration      1(   6)  ---------------------------------------


    POTLOK:  cpu time    0.1295: real time    0.1296
    SETDIJ:  cpu time    0.1198: real time    0.1308
    EDDIAG:  cpu time    0.6495: real time    0.6495
  RMM-DIIS:  cpu time    2.7843: real time    2.7603
    ORTHCH:  cpu time    0.0166: real time    0.0167
 BZINTS: Fermi energy:    4.289663;  352.000000 electrons
         Band energy:-0.562598E+03;  BLOECHL correction:   -0.063565
       DOS:  cpu time    0.0051: real time    0.0051
    CHARGE:  cpu time    1.4225: real time    1.4223
    MIXING:  cpu time    0.0588: real time    0.0588
    --------------------------------------------
      LOOP:  cpu time    5.1860: real time    5.1731

 eigenvalue-minimisations  :  1864
 total energy-change (2. order) : 0.4785480E+02  (-0.4537188E+01)
 number of electron     351.9999997 magnetization 
 augmentation part        0.9024536 magnetization 

 Broyden mixing:
  rms(total) = 0.24484E+01    rms(broyden)= 0.24484E+01
  rms(prec ) = 0.31629E+01
  weight for this iteration     100.00

 eigenvalues of (default mixing * dielectric matrix)
  average eigenvalue GAMMA=   2.1115
  2.1115

 Free energy of the ion-electron system (eV)
  ---------------------------------------------------
  alpha Z        PSCENC =      1148.69131244
  Ewald energy   TEWEN  =    -10395.28541032
  -Hartree energ DENC   =     -1181.45657133
  -exchange      EXHF   =         0.00000000
  -V(xc)+E(xc)   XCENC  =       939.23132431
  PAW double counting   =     15147.54402008   -15081.08695657
  entropy T*S    EENTRO =         0.00000000
  eigenvalues    EBANDS =      -562.59810191
  atomic energy  EATOM  =      9186.75495500
  Solvation  Ediel_sol  =         0.00000000
  ---------------------------------------------------
  free energy    TOTEN  =      -798.20542829 eV

  energy without entropy =     -798.20542829  energy(sigma->0) =     -798.20542829


--------------------------------------------------------------------------------------------------------




--------------------------------------- Iteration      1(   7)  ---------------------------------------


    POTLOK:  cpu time    0.1244: real time    0.1244
    SETDIJ:  cpu time    0.1172: real time    0.1172
    EDDIAG:  cpu time    0.6521: real time    0.6522
  RMM-DIIS:  cpu time    2.7852: real time    2.7604
    ORTHCH:  cpu time    0.0165: real time    0.0165
 BZINTS: Fermi energy:    4.949209;  352.000000 electrons
         Band energy:-0.322252E+03;  BLOECHL correction:   -0.152767
       DOS:  cpu time    0.0051: real time    0.0051
    CHARGE:  cpu time    1.4395: real time    1.4393
    MIXING:  cpu time    0.0585: real time    0.0584
    --------------------------------------------
      LOOP:  cpu time    5.1984: real time    5.1735

 eigenvalue-minimisations  :  1864
 total energy-change (2. order) : 0.1339726E+02  (-0.4200824E+01)
 number of electron     351.9999997 magnetization 
 augmentation part        0.7090034 magnetization 

 Broyden mixing:
  rms(total) = 0.60171E+00    rms(broyden)= 0.60171E+00
  rms(prec ) = 0.69883E+00
  weight for this iteration     100.00

 eigenvalues of (default mixing * dielectric matrix)
  average eigenvalue GAMMA=   1.7429
  1.2449  2.2409

 Free energy of the ion-electron system (eV)
  ---------------------------------------------------
  alpha Z        PSCENC =      1148.69131244
  Ewald energy   TEWEN  =    -10395.28541032
  -Hartree energ DENC   =     -1419.64902316
  -exchange      EXHF   =         0.00000000
  -V(xc)+E(xc)   XCENC  =       956.64746484
  PAW double counting   =     32268.46425860   -32208.17981184
  entropy T*S    EENTRO =         0.00000000
  eigenvalues    EBANDS =      -322.25191413
  atomic energy  EATOM  =      9186.75495500
  Solvation  Ediel_sol  =         0.00000000
  ---------------------------------------------------
  free energy    TOTEN  =      -784.80816857 eV

  energy without entropy =     -784.80816857  energy(sigma->0) =     -784.80816857


--------------------------------------------------------------------------------------------------------




--------------------------------------- Iteration      1(   8)  ---------------------------------------


    POTLOK:  cpu time    0.1284: real time    0.1284
    SETDIJ:  cpu time    0.1174: real time    0.1174
    EDDIAG:  cpu time    0.6520: real time    0.6521
  RMM-DIIS:  cpu time    2.7841: real time    2.7662
    ORTHCH:  cpu time    0.0165: real time    0.0165
 BZINTS: Fermi energy:    5.011530;  352.000000 electrons
         Band energy:-0.303930E+03;  BLOECHL correction:   -0.142643
       DOS:  cpu time    0.0052: real time    0.0052
    CHARGE:  cpu time    1.4187: real time    1.4234
    MIXING:  cpu time    0.0587: real time    0.0587
    --------------------------------------------
      LOOP:  cpu time    5.1810: real time    5.1679

 eigenvalue-minimisations  :  1864
 total energy-change (2. order) :-0.1192079E+00  (-0.4102452E+00)
 number of electron     351.9999997 magnetization 
 augmentation part        0.6518599 magnetization 

 Broyden mixing:
  rms(total) = 0.26659E+00    rms(broyden)= 0.26658E+00
  rms(prec ) = 0.30577E+00
  weight for this iteration     100.00

 eigenvalues of (default mixing * dielectric matrix)
  average eigenvalue GAMMA=   1.8016
  2.4285  1.4881  1.4881

 Free energy of the ion-electron system (eV)
  ---------------------------------------------------
  alpha Z        PSCENC =      1148.69131244
  Ewald energy   TEWEN  =    -10395.28541032
  -Hartree energ DENC   =     -1440.14442047
  -exchange      EXHF   =         0.00000000
  -V(xc)+E(xc)   XCENC  =       959.14484973
  PAW double counting   =     37421.17351306   -37361.33241580
  entropy T*S    EENTRO =         0.00000000
  eigenvalues    EBANDS =      -303.92976009
  atomic energy  EATOM  =      9186.75495500
  Solvation  Ediel_sol  =         0.00000000
  ---------------------------------------------------
  free energy    TOTEN  =      -784.92737645 eV

  energy without entropy =     -784.92737645  energy(sigma->0) =     -784.92737645


--------------------------------------------------------------------------------------------------------




--------------------------------------- Iteration      1(   9)  ---------------------------------------


    POTLOK:  cpu time    0.1230: real time    0.1231
    SETDIJ:  cpu time    0.1237: real time    0.1239
    EDDIAG:  cpu time    0.6540: real time    0.6538
  RMM-DIIS:  cpu time    2.7756: real time    2.7520
    ORTHCH:  cpu time    0.0166: real time    0.0166
 BZINTS: Fermi energy:    5.069019;  352.000000 electrons
         Band energy:-0.300000E+03;  BLOECHL correction:   -0.194421
       DOS:  cpu time    0.0051: real time    0.0051
    CHARGE:  cpu time    1.4175: real time    1.4285
    MIXING:  cpu time    0.0597: real time    0.0598
    --------------------------------------------
      LOOP:  cpu time    5.1753: real time    5.1627

 eigenvalue-minimisations  :  1864
 total energy-change (2. order) :-0.8517277E-01  (-0.4723950E-01)
 number of electron     351.9999998 magnetization 
 augmentation part        0.6265165 magnetization 

 Broyden mixing:
  rms(total) = 0.97479E-01    rms(broyden)= 0.97479E-01
  rms(prec ) = 0.13830E+00
  weight for this iteration     100.00

 eigenvalues of (default mixing * dielectric matrix)
  average eigenvalue GAMMA=   1.7377
  2.3860  2.3860  1.0894  1.0894

 Free energy of the ion-electron system (eV)
  ---------------------------------------------------
  alpha Z        PSCENC =      1148.69131244
  Ewald energy   TEWEN  =    -10395.28541032
  -Hartree energ DENC   =     -1444.90557743
  -exchange      EXHF   =         0.00000000
  -V(xc)+E(xc)   XCENC  =       959.84035115
  PAW double counting   =     39982.89121508   -39922.99927272
  entropy T*S    EENTRO =         0.00000000
  eigenvalues    EBANDS =      -300.00012241
  atomic energy  EATOM  =      9186.75495500
  Solvation  Ediel_sol  =         0.00000000
  ---------------------------------------------------
  free energy    TOTEN  =      -785.01254922 eV

  energy without entropy =     -785.01254922  energy(sigma->0) =     -785.01254922


--------------------------------------------------------------------------------------------------------




--------------------------------------- Iteration      1(  10)  ---------------------------------------


    POTLOK:  cpu time    0.1245: real time    0.1245
    SETDIJ:  cpu time    0.1179: real time    0.1179
    EDDIAG:  cpu time    0.6519: real time    0.6518
  RMM-DIIS:  cpu time    2.7695: real time    2.7594
    ORTHCH:  cpu time    0.0166: real time    0.0166
 BZINTS: Fermi energy:    5.023482;  352.000000 electrons
         Band energy:-0.308715E+03;  BLOECHL correction:   -0.174127
       DOS:  cpu time    0.0051: real time    0.0051
    CHARGE:  cpu time    1.4460: real time    1.4456
    MIXING:  cpu time    0.0611: real time    0.0611
    --------------------------------------------
      LOOP:  cpu time    5.1926: real time    5.1819

 eigenvalue-minimisations  :  1864
 total energy-change (2. order) : 0.2624256E-01  (-0.1780169E-01)
 number of electron     351.9999998 magnetization 
 augmentation part        0.6190597 magnetization 

 Broyden mixing:
  rms(total) = 0.33047E-01    rms(broyden)= 0.33044E-01
  rms(prec ) = 0.56976E-01
  weight for this iteration     100.00

 eigenvalues of (default mixing * dielectric matrix)
  average eigenvalue GAMMA=   1.6496
  2.5022  2.0436  1.6737  1.0141  1.0141

 Free energy of the ion-electron system (eV)
  ---------------------------------------------------
  alpha Z        PSCENC =      1148.69131244
  Ewald energy   TEWEN  =    -10395.28541032
  -Hartree energ DENC   =     -1435.97274873
  -exchange      EXHF   =         0.00000000
  -V(xc)+E(xc)   XCENC  =       959.34170655
  PAW double counting   =     40121.32369324   -40061.12447855
  entropy T*S    EENTRO =         0.00000000
  eigenvalues    EBANDS =      -308.71533629
  atomic energy  EATOM  =      9186.75495500
  Solvation  Ediel_sol  =         0.00000000
  ---------------------------------------------------
  free energy    TOTEN  =      -784.98630666 eV

  energy without entropy =     -784.98630666  energy(sigma->0) =     -784.98630666


--------------------------------------------------------------------------------------------------------




--------------------------------------- Iteration      1(  11)  ---------------------------------------


    POTLOK:  cpu time    0.1228: real time    0.1229
    SETDIJ:  cpu time    0.1172: real time    0.1171
    EDDIAG:  cpu time    0.6508: real time    0.6507
  RMM-DIIS:  cpu time    2.8084: real time    2.7810
    ORTHCH:  cpu time    0.0166: real time    0.0166
 BZINTS: Fermi energy:    5.033642;  352.000000 electrons
         Band energy:-0.305781E+03;  BLOECHL correction:   -0.176840
       DOS:  cpu time    0.0052: real time    0.0051
    CHARGE:  cpu time    1.4420: real time    1.4425
    MIXING:  cpu time    0.0691: real time    0.0690
    --------------------------------------------
      LOOP:  cpu time    5.2319: real time    5.2050

 eigenvalue-minimisations  :  1868
 total energy-change (2. order) :-0.2907132E-03  (-0.2774687E-02)
 number of electron     351.9999998 magnetization 
 augmentation part        0.6155127 magnetization 

 Broyden mixing:
  rms(total) = 0.85012E-02    rms(broyden)= 0.85009E-02
  rms(prec ) = 0.10568E-01
  weight for this iteration     100.00

 eigenvalues of (default mixing * dielectric matrix)
  average eigenvalue GAMMA=   1.6053
  2.4285  2.4285  1.6228  1.1519  1.0003  1.0003

 Free energy of the ion-electron system (eV)
  ---------------------------------------------------
  alpha Z        PSCENC =      1148.69131244
  Ewald energy   TEWEN  =    -10395.28541032
  -Hartree energ DENC   =     -1439.04695747
  -exchange      EXHF   =         0.00000000
  -V(xc)+E(xc)   XCENC  =       959.51991192
  PAW double counting   =     40372.83018113   -40312.66923168
  entropy T*S    EENTRO =         0.00000000
  eigenvalues    EBANDS =      -305.78135839
  atomic energy  EATOM  =      9186.75495500
  Solvation  Ediel_sol  =         0.00000000
  ---------------------------------------------------
  free energy    TOTEN  =      -784.98659737 eV

  energy without entropy =     -784.98659737  energy(sigma->0) =     -784.98659737


--------------------------------------------------------------------------------------------------------




--------------------------------------- Iteration      1(  12)  ---------------------------------------


    POTLOK:  cpu time    0.1295: real time    0.1295
    SETDIJ:  cpu time    0.1250: real time    0.1249
    EDDIAG:  cpu time    0.6456: real time    0.6457
  RMM-DIIS:  cpu time    2.8368: real time    2.8250
    ORTHCH:  cpu time    0.0165: real time    0.0165
 BZINTS: Fermi energy:    5.032918;  352.000000 electrons
         Band energy:-0.306055E+03;  BLOECHL correction:   -0.177247
       DOS:  cpu time    0.0051: real time    0.0053
    CHARGE:  cpu time    1.4353: real time    1.4352
    MIXING:  cpu time    0.0705: real time    0.0705
    --------------------------------------------
      LOOP:  cpu time    5.2643: real time    5.2526

 eigenvalue-minimisations  :  1890
 total energy-change (2. order) :-0.9339863E-03  (-0.6065514E-03)
 number of electron     351.9999998 magnetization 
 augmentation part        0.6137272 magnetization 

 Broyden mixing:
  rms(total) = 0.51490E-02    rms(broyden)= 0.51490E-02
  rms(prec ) = 0.65065E-02
  weight for this iteration     100.00

 eigenvalues of (default mixing * dielectric matrix)
  average eigenvalue GAMMA=   1.6794
  2.5652  2.5652  1.8554  1.8554  1.0143  1.0143  0.8858

 Free energy of the ion-electron system (eV)
  ---------------------------------------------------
  alpha Z        PSCENC =      1148.69131244
  Ewald energy   TEWEN  =    -10395.28541032
  -Hartree energ DENC   =     -1438.76698720
  -exchange      EXHF   =         0.00000000
  -V(xc)+E(xc)   XCENC  =       959.49589150
  PAW double counting   =     40352.09263013   -40291.91451336
  entropy T*S    EENTRO =         0.00000000
  eigenvalues    EBANDS =      -306.05540955
  atomic energy  EATOM  =      9186.75495500
  Solvation  Ediel_sol  =         0.00000000
  ---------------------------------------------------
  free energy    TOTEN  =      -784.98753136 eV

  energy without entropy =     -784.98753136  energy(sigma->0) =     -784.98753136


--------------------------------------------------------------------------------------------------------




--------------------------------------- Iteration      1(  13)  ---------------------------------------


    POTLOK:  cpu time    0.1229: real time    0.1229
    SETDIJ:  cpu time    0.1176: real time    0.1176
    EDDIAG:  cpu time    0.6490: real time    0.6490
  RMM-DIIS:  cpu time    2.8072: real time    2.7912
    ORTHCH:  cpu time    0.0165: real time    0.0165
 BZINTS: Fermi energy:    5.033276;  352.000000 electrons
         Band energy:-0.306161E+03;  BLOECHL correction:   -0.177696
       DOS:  cpu time    0.0051: real time    0.0051
    CHARGE:  cpu time    1.4396: real time    1.4393
    MIXING:  cpu time    0.0643: real time    0.0643
    --------------------------------------------
      LOOP:  cpu time    5.2222: real time    5.2058

 eigenvalue-minimisations  :  1870
 total energy-change (2. order) :-0.2571255E-03  (-0.1146366E-03)
 number of electron     351.9999998 magnetization 
 augmentation part        0.6127468 magnetization 

 Broyden mixing:
  rms(total) = 0.26081E-02    rms(broyden)= 0.26081E-02
  rms(prec ) = 0.45523E-02
  weight for this iteration     100.00

 eigenvalues of (default mixing * dielectric matrix)
  average eigenvalue GAMMA=   1.6511
  2.8739  2.7723  2.1049  1.5435  0.9976  0.9976  0.9596  0.9596

 Free energy of the ion-electron system (eV)
  ---------------------------------------------------
  alpha Z        PSCENC =      1148.69131244
  Ewald energy   TEWEN  =    -10395.28541032
  -Hartree energ DENC   =     -1438.67438171
  -exchange      EXHF   =         0.00000000
  -V(xc)+E(xc)   XCENC  =       959.50231351
  PAW double counting   =     40351.83024327   -40291.64598677
  entropy T*S    EENTRO =         0.00000000
  eigenvalues    EBANDS =      -306.16083392
  atomic energy  EATOM  =      9186.75495500
  Solvation  Ediel_sol  =         0.00000000
  ---------------------------------------------------
  free energy    TOTEN  =      -784.98778848 eV

  energy without entropy =     -784.98778848  energy(sigma->0) =     -784.98778848


--------------------------------------------------------------------------------------------------------




--------------------------------------- Iteration      1(  14)  ---------------------------------------


    POTLOK:  cpu time    0.1234: real time    0.1235
    SETDIJ:  cpu time    0.1253: real time    0.1253
    EDDIAG:  cpu time    0.6485: real time    0.6483
  RMM-DIIS:  cpu time    2.7943: real time    2.7685
    ORTHCH:  cpu time    0.0165: real time    0.0165
 BZINTS: Fermi energy:    5.033923;  352.000000 electrons
         Band energy:-0.305910E+03;  BLOECHL correction:   -0.177673
       DOS:  cpu time    0.0051: real time    0.0051
    CHARGE:  cpu time    1.4208: real time    1.4206
    MIXING:  cpu time    0.0650: real time    0.0650
    --------------------------------------------
      LOOP:  cpu time    5.1990: real time    5.1729

 eigenvalue-minimisations  :  1865
 total energy-change (2. order) :-0.1158603E-03  (-0.4030411E-04)
 number of electron     351.9999998 magnetization 
 augmentation part        0.6124167 magnetization 

 Broyden mixing:
  rms(total) = 0.71742E-03    rms(broyden)= 0.71737E-03
  rms(prec ) = 0.11333E-02
  weight for this iteration     100.00

 eigenvalues of (default mixing * dielectric matrix)
  average eigenvalue GAMMA=   1.6213
  2.6628  2.6628  1.8233  1.8233  1.6422  1.1493  0.9919  0.9919  0.8442

 Free energy of the ion-electron system (eV)
  ---------------------------------------------------
  alpha Z        PSCENC =      1148.69131244
  Ewald energy   TEWEN  =    -10395.28541032
  -Hartree energ DENC   =     -1438.93467931
  -exchange      EXHF   =         0.00000000
  -V(xc)+E(xc)   XCENC  =       959.51455311
  PAW double counting   =     40351.05305167   -40290.87211755
  entropy T*S    EENTRO =         0.00000000
  eigenvalues    EBANDS =      -305.90956939
  atomic energy  EATOM  =      9186.75495500
  Solvation  Ediel_sol  =         0.00000000
  ---------------------------------------------------
  free energy    TOTEN  =      -784.98790434 eV

  energy without entropy =     -784.98790434  energy(sigma->0) =     -784.98790434


--------------------------------------------------------------------------------------------------------




--------------------------------------- Iteration      1(  15)  ---------------------------------------


    POTLOK:  cpu time    0.1232: real time    0.1233
    SETDIJ:  cpu time    0.1172: real time    0.1172
    EDDIAG:  cpu time    0.6498: real time    0.6498
  RMM-DIIS:  cpu time    2.8033: real time    2.7794
    ORTHCH:  cpu time    0.0165: real time    0.0165
 BZINTS: Fermi energy:    5.033673;  352.000000 electrons
         Band energy:-0.305950E+03;  BLOECHL correction:   -0.177567
       DOS:  cpu time    0.0051: real time    0.0051
    CHARGE:  cpu time    1.4428: real time    1.4516
    MIXING:  cpu time    0.0659: real time    0.0659
    --------------------------------------------
      LOOP:  cpu time    5.2239: real time    5.2088

 eigenvalue-minimisations  :  1872
 total energy-change (2. order) : 0.5541815E-04  (-0.8658234E-05)
 number of electron     351.9999998 magnetization 
 augmentation part        0.6122603 magnetization 

 Broyden mixing:
  rms(total) = 0.90081E-03    rms(broyden)= 0.90081E-03
  rms(prec ) = 0.11036E-02
  weight for this iteration     100.00

 eigenvalues of (default mixing * dielectric matrix)
  average eigenvalue GAMMA=   1.6239
  2.9779  2.4829  2.4829  1.9996  1.6724  1.0210  1.0210  0.8837  0.8487  0.8487

 Free energy of the ion-electron system (eV)
  ---------------------------------------------------
  alpha Z        PSCENC =      1148.69131244
  Ewald energy   TEWEN  =    -10395.28541032
  -Hartree energ DENC   =     -1438.89291913
  -exchange      EXHF   =         0.00000000
  -V(xc)+E(xc)   XCENC  =       959.51224565
  PAW double counting   =     40356.49250284   -40296.31092447
  entropy T*S    EENTRO =         0.00000000
  eigenvalues    EBANDS =      -305.94961094
  atomic energy  EATOM  =      9186.75495500
  Solvation  Ediel_sol  =         0.00000000
  ---------------------------------------------------
  free energy    TOTEN  =      -784.98784893 eV

  energy without entropy =     -784.98784893  energy(sigma->0) =     -784.98784893


--------------------------------------------------------------------------------------------------------




--------------------------------------- Iteration      1(  16)  ---------------------------------------


    POTLOK:  cpu time    0.1231: real time    0.1237
    SETDIJ:  cpu time    0.1183: real time    0.1182
    EDDIAG:  cpu time    0.6541: real time    0.6539
  RMM-DIIS:  cpu time    2.6451: real time    2.6280
    ORTHCH:  cpu time    0.0166: real time    0.0166
 BZINTS: Fermi energy:    5.033834;  352.000000 electrons
         Band energy:-0.305930E+03;  BLOECHL correction:   -0.177643
       DOS:  cpu time    0.0051: real time    0.0051
    CHARGE:  cpu time    1.4411: real time    1.4409
    MIXING:  cpu time    0.0661: real time    0.0660
    --------------------------------------------
      LOOP:  cpu time    5.0694: real time    5.0524

 eigenvalue-minimisations  :  1747
 total energy-change (2. order) :-0.5554823E-04  (-0.1793382E-05)
 number of electron     351.9999998 magnetization 
 augmentation part        0.6121774 magnetization 

 Broyden mixing:
  rms(total) = 0.32655E-03    rms(broyden)= 0.32655E-03
  rms(prec ) = 0.46644E-03
  weight for this iteration     100.00

 eigenvalues of (default mixing * dielectric matrix)
  average eigenvalue GAMMA=   1.5783
  2.9780  2.4146  2.4146  1.8422  1.8422  1.0110  1.0110  1.0219  1.0219  0.9627
  0.8411

 Free energy of the ion-electron system (eV)
  ---------------------------------------------------
  alpha Z        PSCENC =      1148.69131244
  Ewald energy   TEWEN  =    -10395.28541032
  -Hartree energ DENC   =     -1438.91379464
  -exchange      EXHF   =         0.00000000
  -V(xc)+E(xc)   XCENC  =       959.51451105
  PAW double counting   =     40354.59703615   -40294.41630363
  entropy T*S    EENTRO =         0.00000000
  eigenvalues    EBANDS =      -305.93021053
  atomic energy  EATOM  =      9186.75495500
  Solvation  Ediel_sol  =         0.00000000
  ---------------------------------------------------
  free energy    TOTEN  =      -784.98790447 eV

  energy without entropy =     -784.98790447  energy(sigma->0) =     -784.98790447


--------------------------------------------------------------------------------------------------------




--------------------------------------- Iteration      1(  17)  ---------------------------------------


    POTLOK:  cpu time    0.1229: real time    0.1230
    SETDIJ:  cpu time    0.1176: real time    0.1176
    EDDIAG:  cpu time    0.6586: real time    0.6584
  RMM-DIIS:  cpu time    2.0913: real time    2.0698
    ORTHCH:  cpu time    0.0165: real time    0.0165
 BZINTS: Fermi energy:    5.033858;  352.000000 electrons
         Band energy:-0.305929E+03;  BLOECHL correction:   -0.177660
       DOS:  cpu time    0.0052: real time    0.0052
    CHARGE:  cpu time    1.4323: real time    1.4319
    MIXING:  cpu time    0.0670: real time    0.0670
    --------------------------------------------
      LOOP:  cpu time    4.5114: real time    4.4894

 eigenvalue-minimisations  :  1347
 total energy-change (2. order) :-0.7041606E-05  (-0.3782703E-06)
 number of electron     351.9999998 magnetization 
 augmentation part        0.6121418 magnetization 

 Broyden mixing:
  rms(total) = 0.19273E-03    rms(broyden)= 0.19273E-03
  rms(prec ) = 0.26880E-03
  weight for this iteration     100.00

 eigenvalues of (default mixing * dielectric matrix)
  average eigenvalue GAMMA=   1.6402
  3.4085  2.7240  2.3335  2.3335  1.7508  1.2474  1.2474  0.9646  0.9646  0.9951
  0.9452  0.7674

 Free energy of the ion-electron system (eV)
  ---------------------------------------------------
  alpha Z        PSCENC =      1148.69131244
  Ewald energy   TEWEN  =    -10395.28541032
  -Hartree energ DENC   =     -1438.91538713
  -exchange      EXHF   =         0.00000000
  -V(xc)+E(xc)   XCENC  =       959.51475167
  PAW double counting   =     40354.44762218   -40294.26688335
  entropy T*S    EENTRO =         0.00000000
  eigenvalues    EBANDS =      -305.92887200
  atomic energy  EATOM  =      9186.75495500
  Solvation  Ediel_sol  =         0.00000000
  ---------------------------------------------------
  free energy    TOTEN  =      -784.98791152 eV

  energy without entropy =     -784.98791152  energy(sigma->0) =     -784.98791152


--------------------------------------------------------------------------------------------------------




--------------------------------------- Iteration      1(  18)  ---------------------------------------


    POTLOK:  cpu time    0.1231: real time    0.1231
    SETDIJ:  cpu time    0.1170: real time    0.1170
    EDDIAG:  cpu time    0.6559: real time    0.6558
  RMM-DIIS:  cpu time    1.8645: real time    1.8529
    ORTHCH:  cpu time    0.0168: real time    0.0168
 BZINTS: Fermi energy:    5.033844;  352.000000 electrons
         Band energy:-0.305937E+03;  BLOECHL correction:   -0.177666
       DOS:  cpu time    0.0051: real time    0.0051
    CHARGE:  cpu time    1.4479: real time    1.4477
    MIXING:  cpu time    0.0718: real time    0.0717
    --------------------------------------------
      LOOP:  cpu time    4.3020: real time    4.2901

[...]
   0.796E+01 0.591E+01 0.459E+02   -.801E+01 -.595E+01 -.510E+02   0.462E-01 0.343E-01 0.506E+01   -.883E-06 -.656E-06 -.449E-05
   0.796E+01 0.591E+01 0.459E+02   -.801E+01 -.595E+01 -.510E+02   0.462E-01 0.343E-01 0.506E+01   -.883E-06 -.656E-06 -.449E-05
   0.169E+02 0.354E+02 0.260E+02   -.182E+02 -.398E+02 -.281E+02   0.137E+01 0.440E+01 0.210E+01   -.171E-05 -.339E-05 -.263E-05
   0.169E+02 0.354E+02 0.260E+02   -.182E+02 -.398E+02 -.281E+02   0.137E+01 0.440E+01 0.210E+01   -.171E-05 -.339E-05 -.263E-05
   0.169E+02 0.354E+02 0.260E+02   -.182E+02 -.398E+02 -.281E+02   0.137E+01 0.440E+01 0.210E+01   -.171E-05 -.339E-05 -.263E-05
   0.169E+02 0.354E+02 0.260E+02   -.182E+02 -.398E+02 -.281E+02   0.137E+01 0.440E+01 0.210E+01   -.171E-05 -.339E-05 -.263E-05
   0.169E+02 0.354E+02 0.260E+02   -.182E+02 -.398E+02 -.281E+02   0.137E+01 0.440E+01 0.210E+01   -.171E-05 -.339E-05 -.263E-05
   0.169E+02 0.354E+02 0.260E+02   -.182E+02 -.398E+02 -.281E+02   0.137E+01 0.440E+01 0.210E+01   -.171E-05 -.339E-05 -.263E-05
   0.169E+02 0.354E+02 0.260E+02   -.182E+02 -.398E+02 -.281E+02   0.137E+01 0.440E+01 0.210E+01   -.171E-05 -.339E-05 -.263E-05
   0.169E+02 0.354E+02 0.260E+02   -.182E+02 -.398E+02 -.281E+02   0.137E+01 0.440E+01 0.210E+01   -.171E-05 -.339E-05 -.263E-05
   -.387E+02 -.591E+01 -.260E+02   0.433E+02 0.595E+01 0.281E+02   -.461E+01 -.343E-01 -.210E+01   0.374E-05 0.656E-06 0.263E-05
   -.387E+02 -.591E+01 -.260E+02   0.433E+02 0.595E+01 0.281E+02   -.461E+01 -.343E-01 -.210E+01   0.374E-05 0.656E-06 0.263E-05
   -.387E+02 -.591E+01 -.260E+02   0.433E+02 0.595E+01 0.281E+02   -.461E+01 -.343E-01 -.210E+01   0.374E-05 0.656E-06 0.263E-05
   -.387E+02 -.591E+01 -.260E+02   0.433E+02 0.595E+01 0.281E+02   -.461E+01 -.343E-01 -.210E+01   0.374E-05 0.656E-06 0.263E-05
   -.387E+02 -.591E+01 -.260E+02   0.433E+02 0.595E+01 0.281E+02   -.461E+01 -.343E-01 -.210E+01   0.374E-05 0.656E-06 0.263E-05
   -.387E+02 -.591E+01 -.260E+02   0.433E+02 0.595E+01 0.281E+02   -.461E+01 -.343E-01 -.210E+01   0.374E-05 0.656E-06 0.263E-05
   -.387E+02 -.591E+01 -.260E+02   0.433E+02 0.595E+01 0.281E+02   -.461E+01 -.343E-01 -.210E+01   0.374E-05 0.656E-06 0.263E-05
   -.387E+02 -.591E+01 -.260E+02   0.433E+02 0.595E+01 0.281E+02   -.461E+01 -.343E-01 -.210E+01   0.374E-05 0.656E-06 0.263E-05
   -.796E+01 -.591E+01 -.459E+02   0.801E+01 0.595E+01 0.510E+02   -.462E-01 -.343E-01 -.506E+01   0.883E-06 0.656E-06 0.449E-05
   -.796E+01 -.591E+01 -.459E+02   0.801E+01 0.595E+01 0.510E+02   -.462E-01 -.343E-01 -.506E+01   0.883E-06 0.656E-06 0.449E-05
   -.796E+01 -.591E+01 -.459E+02   0.801E+01 0.595E+01 0.510E+02   -.462E-01 -.343E-01 -.506E+01   0.883E-06 0.656E-06 0.449E-05
   -.796E+01 -.591E+01 -.459E+02   0.801E+01 0.595E+01 0.510E+02   -.462E-01 -.343E-01 -.506E+01   0.883E-06 0.656E-06 0.449E-05
   -.796E+01 -.591E+01 -.459E+02   0.801E+01 0.595E+01 0.510E+02   -.462E-01 -.343E-01 -.506E+01   0.883E-06 0.656E-06 0.449E-05
   -.796E+01 -.591E+01 -.459E+02   0.801E+01 0.595E+01 0.510E+02   -.462E-01 -.343E-01 -.506E+01   0.883E-06 0.656E-06 0.449E-05
   -.796E+01 -.591E+01 -.459E+02   0.801E+01 0.595E+01 0.510E+02   -.462E-01 -.343E-01 -.506E+01   0.883E-06 0.656E-06 0.449E-05
   -.796E+01 -.591E+01 -.459E+02   0.801E+01 0.595E+01 0.510E+02   -.462E-01 -.343E-01 -.506E+01   0.883E-06 0.656E-06 0.449E-05
   -.169E+02 -.354E+02 -.260E+02   0.182E+02 0.398E+02 0.281E+02   -.137E+01 -.440E+01 -.210E+01   0.171E-05 0.339E-05 0.263E-05
   -.169E+02 -.354E+02 -.260E+02   0.182E+02 0.398E+02 0.281E+02   -.137E+01 -.440E+01 -.210E+01   0.171E-05 0.339E-05 0.263E-05
   -.169E+02 -.354E+02 -.260E+02   0.182E+02 0.398E+02 0.281E+02   -.137E+01 -.440E+01 -.210E+01   0.171E-05 0.339E-05 0.263E-05
   -.169E+02 -.354E+02 -.260E+02   0.182E+02 0.398E+02 0.281E+02   -.137E+01 -.440E+01 -.210E+01   0.171E-05 0.339E-05 0.263E-05
   -.169E+02 -.354E+02 -.260E+02   0.182E+02 0.398E+02 0.281E+02   -.137E+01 -.440E+01 -.210E+01   0.171E-05 0.339E-05 0.263E-05
   -.169E+02 -.354E+02 -.260E+02   0.182E+02 0.398E+02 0.281E+02   -.137E+01 -.440E+01 -.210E+01   0.171E-05 0.339E-05 0.263E-05
   -.169E+02 -.354E+02 -.260E+02   0.182E+02 0.398E+02 0.281E+02   -.137E+01 -.440E+01 -.210E+01   0.171E-05 0.339E-05 0.263E-05
   -.169E+02 -.354E+02 -.260E+02   0.182E+02 0.398E+02 0.281E+02   -.137E+01 -.440E+01 -.210E+01   0.171E-05 0.339E-05 0.263E-05
   0.166E+02 0.123E+02 0.256E+02   -.166E+02 -.123E+02 -.256E+02   0.119E-02 0.882E-03 0.183E-02   -.981E-05 -.728E-05 -.151E-04
   0.166E+02 0.123E+02 0.256E+02   -.166E+02 -.123E+02 -.256E+02   0.119E-02 0.882E-03 0.183E-02   -.981E-05 -.728E-05 -.151E-04
   0.166E+02 0.123E+02 0.256E+02   -.166E+02 -.123E+02 -.256E+02   0.119E-02 0.882E-03 0.183E-02   -.981E-05 -.728E-05 -.151E-04
   0.166E+02 0.123E+02 0.256E+02   -.166E+02 -.123E+02 -.256E+02   0.119E-02 0.882E-03 0.183E-02   -.981E-05 -.728E-05 -.151E-04
   0.166E+02 0.123E+02 0.256E+02   -.166E+02 -.123E+02 -.256E+02   0.119E-02 0.882E-03 0.183E-02   -.981E-05 -.728E-05 -.151E-04
   0.166E+02 0.123E+02 0.256E+02   -.166E+02 -.123E+02 -.256E+02   0.119E-02 0.882E-03 0.183E-02   -.981E-05 -.728E-05 -.151E-04
   0.166E+02 0.123E+02 0.256E+02   -.166E+02 -.123E+02 -.256E+02   0.119E-02 0.882E-03 0.183E-02   -.981E-05 -.728E-05 -.151E-04
   0.166E+02 0.123E+02 0.256E+02   -.166E+02 -.123E+02 -.256E+02   0.119E-02 0.882E-03 0.183E-02   -.981E-05 -.728E-05 -.151E-04
   -.166E+02 -.123E+02 -.256E+02   0.166E+02 0.123E+02 0.256E+02   -.119E-02 -.882E-03 -.183E-02   0.981E-05 0.728E-05 0.151E-04
   -.166E+02 -.123E+02 -.256E+02   0.166E+02 0.123E+02 0.256E+02   -.119E-02 -.882E-03 -.183E-02   0.981E-05 0.728E-05 0.151E-04
   -.166E+02 -.123E+02 -.256E+02   0.166E+02 0.123E+02 0.256E+02   -.119E-02 -.882E-03 -.183E-02   0.981E-05 0.728E-05 0.151E-04
   -.166E+02 -.123E+02 -.256E+02   0.166E+02 0.123E+02 0.256E+02   -.119E-02 -.882E-03 -.183E-02   0.981E-05 0.728E-05 0.151E-04
   -.166E+02 -.123E+02 -.256E+02   0.166E+02 0.123E+02 0.256E+02   -.119E-02 -.882E-03 -.183E-02   0.981E-05 0.728E-05 0.151E-04
   -.166E+02 -.123E+02 -.256E+02   0.166E+02 0.123E+02 0.256E+02   -.119E-02 -.882E-03 -.183E-02   0.981E-05 0.728E-05 0.151E-04
   -.166E+02 -.123E+02 -.256E+02   0.166E+02 0.123E+02 0.256E+02   -.119E-02 -.882E-03 -.183E-02   0.981E-05 0.728E-05 0.151E-04
   -.166E+02 -.123E+02 -.256E+02   0.166E+02 0.123E+02 0.256E+02   -.119E-02 -.882E-03 -.183E-02   0.981E-05 0.728E-05 0.151E-04
 -----------------------------------------------------------------------------------------------
   0.490E-11 -.104E-10 0.376E-10   -.639E-13 0.275E-12 0.133E-11   0.976E-14 0.446E-14 0.284E-13   -.115E-11 -.125E-12 -.995E-12
 
 
 POSITION                                       TOTAL-FORCE (eV/Angst)
 -----------------------------------------------------------------------------------
      2.47292      3.44410      6.18049        -0.000382      0.000500      0.000566
      2.46119      3.43539     11.12318        -0.000382      0.000500      0.000566
      3.77201      7.77286      8.18163        -0.000382      0.000500      0.000566
      3.76028      7.76416     13.12431        -0.000382      0.000500      0.000566
      6.99241      3.43539      8.18163        -0.000382      0.000500      0.000566
      6.98068      3.42668     13.12431        -0.000382      0.000500      0.000566
      8.29149      7.76416     10.18277        -0.000382      0.000500      0.000566
      8.27976      7.75545     15.12545        -0.000382      0.000500      0.000566
      4.63877      3.44410      4.77448         0.000673      0.000500     -0.000118
      4.62704      3.43539      9.71717         0.000673      0.000500     -0.000118
      5.93786      7.77286      6.77562         0.000673      0.000500     -0.000118
      5.92613      7.76416     11.71830         0.000673      0.000500     -0.000118
      9.15825      3.43539      6.77562         0.000673      0.000500     -0.000118
      9.14652      3.42668     11.71830         0.000673      0.000500     -0.000118
     10.45734      7.76416      8.77676         0.000673      0.000500     -0.000118
     10.44561      7.75545     13.71944         0.000673      0.000500     -0.000118
      4.01222      1.37086      6.18049         0.000368     -0.000510      0.000566
      4.00049      1.36215     11.12318         0.000368     -0.000510      0.000566
      5.31131      5.69962      8.18163         0.000368     -0.000510      0.000566
      5.29958      5.69092     13.12431         0.000368     -0.000510      0.000566
      8.53170      1.36215      8.18163         0.000368     -0.000510      0.000566
      8.51997      1.35344     13.12431         0.000368     -0.000510      0.000566
      9.83079      5.69092     10.18277         0.000368     -0.000510      0.000566
      9.81906      5.68221     15.12545         0.000368     -0.000510      0.000566
      3.33392      0.86725      2.76447         0.000382     -0.000500     -0.000566
      3.32219      0.85854      7.70715         0.000382     -0.000500     -0.000566
      4.63300      5.19601      4.76560         0.000382     -0.000500     -0.000566
      4.62127      5.18730      9.70829         0.000382     -0.000500     -0.000566
      7.85340      0.85854      4.76560         0.000382     -0.000500     -0.000566
      7.84167      0.84983      9.70829         0.000382     -0.000500     -0.000566
      9.15249      5.18730      6.76674         0.000382     -0.000500     -0.000566
      9.14076      5.17859     11.70942         0.000382     -0.000500     -0.000566
      1.16807      0.86725      4.17048        -0.000673     -0.000500      0.000118
      1.15634      0.85854      9.11316        -0.000673     -0.000500      0.000118
      2.46716      5.19601      6.17161        -0.000673     -0.000500      0.000118
      2.45543      5.18730     11.11430        -0.000673     -0.000500      0.000118
      5.68756      0.85854      6.17161        -0.000673     -0.000500      0.000118
      5.67583      0.84983     11.11430        -0.000673     -0.000500      0.000118
      6.98664      5.18730      8.17275        -0.000673     -0.000500      0.000118
      6.97491      5.17859     13.11543        -0.000673     -0.000500      0.000118
      1.79462      2.94049      2.76447        -0.000368      0.000510     -0.000566
      1.78289      2.93178      7.70715        -0.000368      0.000510     -0.000566
      3.09371      7.26925      4.76560        -0.000368      0.000510     -0.000566
      3.08198      7.26054      9.70829        -0.000368      0.000510     -0.000566
      6.31410      2.93178      4.76560        -0.000368      0.000510     -0.000566
      6.30237      2.92307      9.70829        -0.000368      0.000510     -0.000566
      7.61319      7.26054      6.76674        -0.000368      0.000510     -0.000566
      7.60146      7.25183     11.70942        -0.000368      0.000510     -0.000566
      3.01613     -0.02119      1.31281        -0.001306      0.001025      0.000930
      3.00440     -0.02989      6.25550        -0.001306      0.001025      0.000930
      4.31522      4.30758      3.31395        -0.001306      0.001025      0.000930
      4.30349      4.29887      8.25664        -0.001306      0.001025      0.000930
      7.53562     -0.02989      3.31395        -0.001306      0.001025      0.000930
      7.52389     -0.03860      8.25664        -0.001306      0.001025      0.000930
      8.83470      4.29887      5.31509        -0.001306      0.001025      0.000930
      8.82297      4.29016     10.25777        -0.001306      0.001025      0.000930
     -0.02853     -0.02119      3.28934         0.001381      0.001025     -0.000814
     -0.04026     -0.02989      8.23202         0.001381      0.001025     -0.000814
      1.27055      4.30758      5.29047         0.001381      0.001025     -0.000814
      1.25882      4.29887     10.23316         0.001381      0.001025     -0.000814
      4.49095     -0.02989      5.29047         0.001381      0.001025     -0.000814
      4.47922     -0.03860     10.23316         0.001381      0.001025     -0.000814
      5.79004      4.29887      7.29161         0.001381      0.001025     -0.000814
      5.77831      4.29016     12.23429         0.001381      0.001025     -0.000814
      0.85225      2.89330      1.31281         0.000604     -0.001547      0.000930
      0.84052      2.88459      6.25550         0.000604     -0.001547      0.000930
      2.15133      7.22207      3.31395         0.000604     -0.001547      0.000930
      2.13960      7.21336      8.25664         0.000604     -0.001547      0.000930
      5.37173      2.88459      3.31395         0.000604     -0.001547      0.000930
      5.36000      2.87589      8.25664         0.000604     -0.001547      0.000930
      6.67082      7.21336      5.31509         0.000604     -0.001547      0.000930
      6.65909      7.20465     10.25777         0.000604     -0.001547      0.000930
      1.50335      0.01248      0.68832         0.001306     -0.001025     -0.000930
      1.49162      0.00377      5.63101         0.001306     -0.001025     -0.000930
      2.80244      4.34124      2.68946         0.001306     -0.001025     -0.000930
      2.79071      4.33253      7.63214         0.001306     -0.001025     -0.000930
      6.02283      0.00377      2.68946         0.001306     -0.001025     -0.000930
      6.01110     -0.00494      7.63214         0.001306     -0.001025     -0.000930
      7.32192      4.33253      4.69060         0.001306     -0.001025     -0.000930
      7.31019      4.32382      9.63328         0.001306     -0.001025     -0.000930
      0.01680      0.01248      1.65335        -0.001381     -0.001025      0.000814
      0.00507      0.00377      6.59603        -0.001381     -0.001025      0.000814
      1.31589      4.34124      3.65449        -0.001381     -0.001025      0.000814
      1.30416      4.33253      8.59717        -0.001381     -0.001025      0.000814
      4.53629      0.00377      3.65449        -0.001381     -0.001025      0.000814
      4.52456     -0.00494      8.59717        -0.001381     -0.001025      0.000814
      5.83538      4.33253      5.65562        -0.001381     -0.001025      0.000814
      5.82365      4.32382     10.59831        -0.001381     -0.001025      0.000814
      0.44684      1.43546      0.68832        -0.000604      0.001547     -0.000930
      0.43511      1.42675      5.63101        -0.000604      0.001547     -0.000930
      1.74593      5.76423      2.68946        -0.000604      0.001547     -0.000930
      1.73420      5.75552      7.63214        -0.000604      0.001547     -0.000930
      4.96632      1.42675      2.68946        -0.000604      0.001547     -0.000930
      4.95459      1.41804      7.63214        -0.000604      0.001547     -0.000930
      6.26541      5.75552      4.69060        -0.000604      0.001547     -0.000930
      6.25368      5.74681      9.63328        -0.000604      0.001547     -0.000930
      3.62225      2.68938      5.57978         0.000715      0.000531      0.001101
      3.61052      2.68067     10.52246         0.000715      0.000531      0.001101
      4.92134      7.01814      7.58091         0.000715      0.000531      0.001101
      4.90961      7.00943     12.52360         0.000715      0.000531      0.001101
      8.14173      2.68067      7.58091         0.000715      0.000531      0.001101
      8.13000      2.67196     12.52360         0.000715      0.000531      0.001101
      9.44082      7.00943      9.58205         0.000715      0.000531      0.001101
      9.42909      7.00072     14.52474         0.000715      0.000531      0.001101
      2.18459      1.62197      3.36518        -0.000715     -0.000531     -0.001101
      2.17286      1.61326      8.30787        -0.000715     -0.000531     -0.001101
      3.48368      5.95073      5.36632        -0.000715     -0.000531     -0.001101
      3.47195      5.94203     10.30900        -0.000715     -0.000531     -0.001101
      6.70407      1.61326      5.36632        -0.000715     -0.000531     -0.001101
      6.69234      1.60455     10.30900        -0.000715     -0.000531     -0.001101
      8.00316      5.94203      7.36745        -0.000715     -0.000531     -0.001101
      7.99143      5.93332     12.31014        -0.000715     -0.000531     -0.001101
 -----------------------------------------------------------------------------------
    total drift:                                0.000000     -0.000000      0.000000


--------------------------------------------------------------------------------------------------------



  FREE ENERGIE OF THE ION-ELECTRON SYSTEM (eV)
  ---------------------------------------------------
  free  energy   TOTEN  =      -785.81996830 eV

  energy  without entropy=     -785.81996830  energy(sigma->0) =     -785.81996830
 
 d Force = 0.1332188E-06[ 0.955E-07, 0.171E-06]  d Energy = 0.4532709E-05-0.440E-05
 d Force = 0.1429241E-01[ 0.143E-01, 0.143E-01]  d Ewald  = 0.2239387E-01-0.810E-02


--------------------------------------------------------------------------------------------------------


    POTLOK:  cpu time    0.2695: real time    0.2694


--------------------------------------------------------------------------------------------------------




--------------------------------------------------------------------------------------------------------


  
 reached required accuracy - stopping structural energy minimisation
     LOOP+:  cpu time   23.3599: real time   23.3863
 -----------------------------------------------------------------------------
|                                                                             |
|           W    W    AA    RRRRR   N    N  II  N    N   GGGG   !!!           |
|           W    W   A  A   R    R  NN   N  II  NN   N  G    G  !!!           |
|           W    W  A    A  R    R  N N  N  II  N N  N  G       !!!           |
|           W WW W  AAAAAA  RRRRR   N  N N  II  N  N N  G  GGG   !            |
|           WW  WW  A    A  R   R   N   NN  II  N   NN  G    G                |
|           W    W  A    A  R    R  N    N  II  N    N   GGGG   !!!           |
|                                                                             |
|     Tetrahedron method does not include variations of the Fermi             |
|     occupations, so forces and stress will be inaccurate. We suggest        |
|     using a different smearing scheme ISMEAR = 1 or 2 for metals in         |
|     relaxations.                                                            |
|                                                                             |
 -----------------------------------------------------------------------------

    4ORBIT:  cpu time    0.0000: real time    0.0000
 BZINTS: Fermi energy:    5.142789;  352.000000 electrons
         Band energy:-0.287982E+03;  BLOECHL correction:   -0.332643

 total amount of memory used by VASP MPI-rank0  1143956. kBytes
=======================================================================

   base      :      30000. kBytes
   nonlr-proj:      54748. kBytes
   fftplans  :     200616. kBytes
   grid      :     358473. kBytes
   one-center:        344. kBytes
   wavefun   :     499775. kBytes
 
  
  
 General timing and accounting informations for this job:
 ========================================================
  
                  Total CPU time used (sec):     1153.804
                            User time (sec):      970.710
                          System time (sec):      183.095
                         Elapsed time (sec):     1153.891
  
                   Maximum memory used (kb):     3181192.
                   Average memory used (kb):          N/A
  
                          Minor page faults:     18630201
                          Major page faults:            1
                 Voluntary context switches:       185129
