<?xml version="1.0" encoding="ISO-8859-1"?>
<modeling>
 <generator>
  <i name="program" type="string">vasp </i>
  <i name="version" type="string">6.2.0  </i>
  <i name="subversion" type="string">18Jan21 (build Feb 25 2021 07:51:20) complex                          parallel </i>
  <i name="platform" type="string">LinuxPGI </i>
  <i name="date" type="string">2022 04 01 </i>
  <i name="time" type="string">13:50:42 </i>
 </generator>
 <incar>
  <i type="string" name="PREC">Accurate</i>
  <i type="string" name="ALGO">Fast</i>
  <i type="int" name="IBRION">     2</i>
  <i name="EDIFF">      0.00000100</i>
  <i type="int" name="NSW">   300</i>
  <i type="int" name="ISIF">     4</i>
  <i name="ENCUT">    700.00000000</i>
  <i type="string" name="LREAL">Auto</i>
  <i type="int" name="ISMEAR">    -5</i>
  <i name="SIGMA">      0.05000000</i>
  <i type="logical" name="LWAVE"> F  </i>
 </incar>
 <primitive_cell>
  <structure name="primitive_cell" >
   <crystal>
    <varray name="basis" >
     <v>       4.53293750       0.03490300       2.07144050 </v>
     <v>       1.34472650       4.32902500       2.07144050 </v>
     <v>       0.04700950       0.03490300       4.98359050 </v>
    </varray>
    <i name="volume">     96.91143076 </i>
    <varray name="rec_basis" >
     <v>       0.22187051      -0.06814664      -0.00161560 </v>
     <v>      -0.00104882       0.23209777      -0.00161562 </v>
     <v>      -0.09178503      -0.06814665       0.20200161 </v>
    </varray>
   </crystal>
   <varray name="positions" >
    <v>       0.32079000       0.80103000       0.80103000 </v>
    <v>       0.80103000       0.80103000       0.32079000 </v>
    <v>       0.80103000       0.32079000       0.80103000 </v>
    <v>       0.67921000       0.19897000       0.19897000 </v>
    <v>       0.19897000       0.19897000       0.67921000 </v>
    <v>       0.19897000       0.67921000       0.19897000 </v>
    <v>       0.66458600       0.00023000       0.00023000 </v>
    <v>       0.00023000       0.00023000       0.66458600 </v>
    <v>       0.00023000       0.66458600       0.00023000 </v>
    <v>       0.33541400       0.99977000       0.99977000 </v>
    <v>       0.99977000       0.99977000       0.33541400 </v>
    <v>       0.99977000       0.33541400       0.99977000 </v>
    <v>       0.63079400       0.63079400       0.63079400 </v>
    <v>       0.36920600       0.36920600       0.36920600 </v>
   </varray>
  </structure>
  <varray name="primitive_index" >
   <v type="int" >        1 </v>
   <v type="int" >        9 </v>
   <v type="int" >       17 </v>
   <v type="int" >       28 </v>
   <v type="int" >       35 </v>
   <v type="int" >       42 </v>
   <v type="int" >       52 </v>
   <v type="int" >       59 </v>
   <v type="int" >       66 </v>
   <v type="int" >       76 </v>
   <v type="int" >       83 </v>
   <v type="int" >       90 </v>
   <v type="int" >       97 </v>
   <v type="int" >      105 </v>
  </varray>
 </primitive_cell>
 <kpoints>
  <generation param="Gamma">
   <v type="int" name="divisions">       2        2        2 </v>
   <v name="usershift">      0.00000000       0.00000000       0.00000000 </v>
   <v name="genvec1">      0.50000000       0.00000000       0.00000000 </v>
   <v name="genvec2">     -0.00000000       0.50000000       0.00000000 </v>
   <v name="genvec3">     -0.00000000      -0.00000000       0.50000000 </v>
   <v name="shift">      0.00000000       0.00000000       0.00000000 </v>
  </generation>
  <varray name="kpointlist" >
   <v>       0.00000000       0.00000000       0.00000000 </v>
   <v>       0.50000000       0.00000000       0.00000000 </v>
   <v>       0.50000000       0.50000000       0.00000000 </v>
   <v>       0.50000000       0.50000000       0.50000000 </v>
  </varray>
  <varray name="weights" >
   <v>       0.12500000 </v>
   <v>       0.37500000 </v>
   <v>       0.37500000 </v>
   <v>       0.12500000 </v>
  </varray>
  <varray name="tetrahedronlist"  type="int" >
   <v type="int" >       12        1        2        3        4 </v>
   <v type="int" >       12        2        2        3        3 </v>
   <v type="int" >       12        1        2        2        3 </v>
   <v type="int" >       12        2        3        3        4 </v>
  </varray>
  <i name="volumeweight">      0.02083333 </i>
 </kpoints>
 <parameters>
  <separator name="general" >
   <i type="string" name="SYSTEM">unknown system</i>
   <i type="logical" name="LCOMPAT"> F  </i>
  </separator>
  <separator name="electronic" >
   <i type="string" name="PREC">accura</i>
   <i name="ENMAX">    700.00000000</i>
   <i name="ENAUG">    644.87300000</i>
   <i name="EDIFF">      0.00000100</i>
   <i type="int" name="IALGO">    68</i>
   <i type="int" name="IWAVPR">    11</i>
   <i type="int" name="NBANDS">   233</i>
   <i type="int" name="NBANDSLOW">    -1</i>
   <i type="int" name="NBANDSHIGH">    -1</i>
   <i name="NELECT">    352.00000000</i>
   <i type="int" name="TURBO">     0</i>
   <i type="int" name="IRESTART">     0</i>
   <i type="int" name="NREBOOT">     0</i>
   <i type="int" name="NMIN">     0</i>
   <i name="EREF">      0.00000000</i>
   <separator name="electronic smearing" >
    <i type="int" name="ISMEAR">    -5</i>
    <i name="SIGMA">      0.05000000</i>
    <i name="KSPACING">      0.50000000</i>
    <i type="logical" name="KGAMMA"> T  </i>
    <i type="logical" name="KBLOWUP"> T  </i>
   </separator>
   <separator name="electronic projectors" >
    <i type="logical" name="LREAL"> T  </i>
    <v name="ROPT">     -0.00025000     -0.00025000</v>
    <i type="int" name="LMAXPAW">  -100</i>
    <i type="int" name="LMAXMIX">     2</i>
    <i type="logical" name="NLSPLINE"> F  </i>
   </separator>
   <separator name="electronic startup" >
    <i type="int" name="ISTART">     0</i>
    <i type="int" name="ICHARG">     2</i>
    <i type="int" name="INIWAV">     1</i>
   </separator>
   <separator name="electronic spin" >
    <i type="int" name="ISPIN">     1</i>
    <i type="logical" name="LNONCOLLINEAR"> F  </i>
    <v name="MAGMOM">      1.00000000      1.00000000      1.00000000      1.00000000      1.00000000      1.00000000      1.00000000      1.00000000      1.00000000      1.00000000      1.00000000      1.00000000      1.00000000      1.00000000      1.00000000      1.00000000      1.00000000      1.00000000      1.00000000      1.00000000
      1.00000000      1.00000000      1.00000000      1.00000000      1.00000000      1.00000000      1.00000000      1.00000000      1.00000000      1.00000000      1.00000000      1.00000000      1.00000000      1.00000000      1.00000000      1.00000000      1.00000000      1.00000000      1.00000000      1.00000000
      1.00000000      1.00000000      1.00000000      1.00000000      1.00000000      1.00000000      1.00000000      1.00000000      1.00000000      1.00000000      1.00000000      1.00000000      1.00000000      1.00000000      1.00000000      1.00000000      1.00000000      1.00000000      1.00000000      1.00000000
      1.00000000      1.00000000      1.00000000      1.00000000      1.00000000      1.00000000      1.00000000      1.00000000      1.00000000      1.00000000      1.00000000      1.00000000      1.00000000      1.00000000      1.00000000      1.00000000      1.00000000      1.00000000      1.00000000      1.00000000
      1.00000000      1.00000000      1.00000000      1.00000000      1.00000000      1.00000000      1.00000000      1.00000000      1.00000000      1.00000000      1.00000000      1.00000000      1.00000000      1.00000000      1.00000000      1.00000000      1.00000000      1.00000000      1.00000000      1.00000000
      1.00000000      1.00000000      1.00000000      1.00000000      1.00000000      1.00000000      1.00000000      1.00000000      1.00000000      1.00000000      1.00000000      1.00000000</v>
    <i name="NUPDOWN">     -1.00000000</i>
    <i type="logical" name="LSORBIT"> F  </i>
    <v name="SAXIS">      0.00000000      0.00000000      1.00000000</v>
    <i type="logical" name="LSPIRAL"> F  </i>
    <v name="QSPIRAL">      0.00000000      0.00000000      0.00000000</v>
    <i type="logical" name="LZEROZ"> F  </i>
   </separator>
   <separator name="electronic exchange-correlation" >
    <i type="logical" name="LASPH"> F  </i>
    <i type="logical" name="LMETAGGA"> F  </i>
   </separator>
   <separator name="electronic convergence" >
    <i type="int" name="NELM">    60</i>
    <i type="int" name="NELMDL">    -5</i>
    <i type="int" name="NELMIN">     2</i>
    <i name="ENINI">    700.00000000</i>
    <separator name="electronic convergence detail" >
     <i type="logical" name="LDIAG"> T  </i>
     <i type="logical" name="LSUBROT"> F  </i>
     <i name="WEIMIN">      0.00100000</i>
     <i name="EBREAK">      0.00000000</i>
     <i name="DEPER">      0.30000000</i>
     <i type="int" name="NRMM">     4</i>
     <i name="TIME">      0.40000000</i>
    </separator>
   </separator>
   <separator name="electronic mixer" >
    <i name="AMIX">      0.40000000</i>
    <i name="BMIX">      1.00000000</i>
    <i name="AMIN">      0.10000000</i>
    <i name="AMIX_MAG">      1.60000000</i>
    <i name="BMIX_MAG">      1.00000000</i>
    <separator name="electronic mixer details" >
     <i type="int" name="IMIX">     4</i>
     <i type="logical" name="MIXFIRST"> F  </i>
     <i type="int" name="MAXMIX">   -45</i>
     <i name="WC">    100.00000000</i>
     <i type="int" name="INIMIX">     1</i>
     <i type="int" name="MIXPRE">     1</i>
     <i type="int" name="MREMOVE">     5</i>
    </separator>
   </separator>
   <separator name="electronic dipolcorrection" >
    <i type="logical" name="LDIPOL"> F  </i>
    <i type="logical" name="LMONO"> F  </i>
    <i type="int" name="IDIPOL">     0</i>
    <i name="EPSILON">      1.00000000</i>
    <v name="DIPOL">   -100.00000000   -100.00000000   -100.00000000</v>
    <i name="EFIELD">      0.00000000</i>
   </separator>
  </separator>
  <separator name="grids" >
   <i type="int" name="NGX">    90</i>
   <i type="int" name="NGY">    90</i>
   <i type="int" name="NGZ">    90</i>
   <i type="int" name="NGXF">   180</i>
   <i type="int" name="NGYF">   180</i>
   <i type="int" name="NGZF">   180</i>
   <i type="logical" name="ADDGRID"> F  </i>
  </separator>
  <separator name="ionic" >
   <i type="int" name="NSW">   300</i>
   <i type="int" name="IBRION">     2</i>
   <i type="int" name="MDALGO">     0</i>
   <i type="int" name="ISIF">     4</i>
   <i name="PSTRESS">      0.00000000</i>
   <i name="EDIFFG">      0.00001000</i>
   <i type="int" name="NFREE">     1</i>
   <i name="POTIM">      0.50000000</i>
   <i name="SMASS">     -3.00000000</i>
   <i name="SCALEE">      1.00000000</i>
  </separator>
  <separator name="ionic md" >
   <i name="TEBEG">      0.00010000</i>
   <i name="TEEND">      0.00010000</i>
   <i type="int" name="NBLOCK">     1</i>
   <i type="int" name="KBLOCK">   300</i>
   <i type="int" name="NPACO">   256</i>
   <i name="APACO">     16.00000000</i>
  </separator>
  <separator name="symmetry" >
   <i type="int" name="ISYM">     2</i>
   <i name="SYMPREC">      0.00001000</i>
  </separator>
  <separator name="dos" >
   <i type="int" name="LORBIT">     0</i>
   <v name="RWIGS">     -1.00000000     -1.00000000</v>
   <i type="int" name="NEDOS">   301</i>
   <i name="EMIN">     10.00000000</i>
   <i name="EMAX">    -10.00000000</i>
   <i name="EFERMI">      0.00000000</i>
  </separator>
  <separator name="writing" >
   <i type="int" name="NWRITE">     2</i>
   <i type="logical" name="LWAVE"> F  </i>
   <i type="logical" name="LDOWNSAMPLE"> F  </i>
   <i type="logical" name="LCHARG"> T  </i>
   <i type="logical" name="LPARD"> F  </i>
   <i type="logical" name="LVTOT"> F  </i>
   <i type="logical" name="LVHAR"> F  </i>
   <i type="logical" name="LELF"> F  </i>
   <i type="logical" name="LOPTICS"> F  </i>
   <v name="STM">      0.00000000      0.00000000      0.00000000      0.00000000      0.00000000      0.00000000      0.00000000</v>
  </separator>
  <separator name="performance" >
   <i type="int" name="NPAR">     1</i>
   <i type="int" name="NSIM">     4</i>
   <i type="int" name="NBLK">    -1</i>
   <i type="logical" name="LPLANE"> T  </i>
   <i type="logical" name="LSCALAPACK"> T  </i>
   <i type="logical" name="LSCAAWARE"> F  </i>
   <i type="logical" name="LSCALU"> F  </i>
   <i type="logical" name="LASYNC"> F  </i>
   <i type="logical" name="LORBITALREAL"> F  </i>
  </separator>
  <separator name="miscellaneous" >
   <i type="int" name="IDIOT">     3</i>
   <i type="int" name="PHON_NSTRUCT">    -1</i>
   <i type="logical" name="LMUSIC"> F  </i>
   <v name="POMASS">     10.81100000     12.01100000</v>
   <v name="DARWINR">      0.00000000      0.00000000</v>
   <v name="DARWINV">      1.00000000      1.00000000</v>
   <i type="logical" name="LCORR"> T  </i>
  </separator>
  <i type="logical" name="GGA_COMPAT"> T  </i>
  <i type="logical" name="LBERRY"> F  </i>
  <i type="int" name="ICORELEVEL">     0</i>
  <i type="logical" name="LDAU"> F  </i>
  <i type="int" name="I_CONSTRAINED_M">     0</i>
  <separator name="electronic exchange-correlation" >
   <i type="string" name="GGA">--</i>
   <i type="int" name="VOSKOWN">     0</i>
   <i type="logical" name="LHFCALC"> F  </i>
   <i type="string" name="PRECFOCK"></i>
   <i type="logical" name="LSYMGRAD"> F  </i>
   <i type="logical" name="LHFONE"> F  </i>
   <i type="logical" name="LRHFCALC"> F  </i>
   <i type="logical" name="LTHOMAS"> F  </i>
   <i type="logical" name="LMODELHF"> F  </i>
   <i type="logical" name="LFOCKACE"> F  </i>
   <i name="ENCUT4O">     -1.00000000</i>
   <i type="int" name="EXXOEP">     0</i>
   <i type="int" name="FOURORBIT">     0</i>
   <i name="AEXX">      0.00000000</i>
   <i name="HFALPHA">      0.00000000</i>
   <i name="MCALPHA">      0.00000000</i>
   <i name="ALDAX">      1.00000000</i>
   <i name="AGGAX">      1.00000000</i>
   <i name="ALDAC">      1.00000000</i>
   <i name="AGGAC">      1.00000000</i>
   <i type="int" name="NKREDX">     1</i>
   <i type="int" name="NKREDY">     1</i>
   <i type="int" name="NKREDZ">     1</i>
   <i type="logical" name="SHIFTRED"> F  </i>
   <i type="logical" name="ODDONLY"> F  </i>
   <i type="logical" name="EVENONLY"> F  </i>
   <i type="int" name="LMAXFOCK">     0</i>
   <i type="int" name="NMAXFOCKAE">     0</i>
   <i type="logical" name="LFOCKAEDFT"> F  </i>
   <i name="HFSCREEN">      0.00000000</i>
   <i name="HFSCREENC">      0.00000000</i>
   <i type="int" name="NBANDSGWLOW">     0</i>
  </separator>
  <separator name="vdW DFT" >
   <i type="logical" name="LUSE_VDW"> F  </i>
   <i name="Zab_VDW">     -0.84910000</i>
   <i name="PARAM1">      0.12340000</i>
   <i name="PARAM2">      1.00000000</i>
   <i name="PARAM3">      0.00000000</i>
  </separator>
  <separator name="model GW" >
   <i type="int" name="MODEL_GW">     0</i>
   <i name="MODEL_EPS0">      4.15334703</i>
   <i name="MODEL_ALPHA">      1.00000000</i>
  </separator>
  <separator name="linear response parameters" >
   <i type="logical" name="LEPSILON"> F  </i>
   <i type="logical" name="LRPA"> F  </i>
   <i type="logical" name="LNABLA"> F  </i>
   <i type="logical" name="LVEL"> F  </i>
   <i type="int" name="KINTER">     0</i>
   <i name="CSHIFT">      0.10000000</i>
   <i name="OMEGAMAX">     -1.00000000</i>
   <i name="DEG_THRESHOLD">      0.00200000</i>
   <i name="RTIME">     -0.10000000</i>
   <i name="WPLASMAI">      0.00000000</i>
   <v name="DFIELD">      0.00000000      0.00000000      0.00000000</v>
   <v name="WPLASMA">      0.00000000      0.00000000      0.00000000      0.00000000      0.00000000      0.00000000      0.00000000      0.00000000      0.00000000</v>
  </separator>
  <separator name="orbital magnetization" >
   <i type="logical" name="NUCIND"> F  </i>
   <v name="MAGPOS">      0.00000000      0.00000000      0.00000000</v>
   <i type="logical" name="LNICSALL"> T  </i>
   <i type="logical" name="ORBITALMAG"> F  </i>
   <i type="logical" name="LMAGBLOCH"> F  </i>
   <i type="logical" name="LCHIMAG"> F  </i>
   <i type="logical" name="LGAUGE"> T  </i>
   <i type="int" name="MAGATOM">     0</i>
   <v name="MAGDIPOL">      0.00000000      0.00000000      0.00000000</v>
   <v name="AVECCONST">      0.00000000      0.00000000      0.00000000</v>
  </separator>
  <separator name="response functions" >
   <i type="logical" name="LFINITE_TEMPERATURE"> F  </i>
   <i type="logical" name="LADDER"> F  </i>
   <i type="logical" name="LRPAFORCE"> F  </i>
   <i type="logical" name="LFXC"> F  </i>
   <i type="logical" name="LHARTREE"> T  </i>
   <i type="int" name="IBSE">     0</i>
   <v type="int" name="KPOINT">    -1     0     0     0</v>
   <i type="logical" name="LTCTC"> F  </i>
   <i type="logical" name="LTCTE"> F  </i>
   <i type="logical" name="LTETE"> F  </i>
   <i type="logical" name="LTRIPLET"> F  </i>
   <i type="logical" name="LFXCEPS"> F  </i>
   <i type="logical" name="LFXHEG"> F  </i>
   <i type="int" name="NATURALO">     2</i>
   <i type="logical" name="LHOLEGF"> F  </i>
   <i type="logical" name="L2ORDER"> F  </i>
   <i type="logical" name="LDMP1"> F  </i>
   <i type="logical" name="LMP2LT"> F  </i>
   <i type="logical" name="LSMP2LT"> F  </i>
   <i type="logical" name="LGWLF"> F  </i>
   <i name="ENCUTGW">     -2.00000000</i>
   <i name="ENCUTGWSOFT">     -2.00000000</i>
   <i name="ENCUTLF">     -1.00000000</i>
   <i type="logical" name="LESF_SPLINES"> F  </i>
   <i type="int" name="LMAXMP2">    -1</i>
   <i name="SCISSOR">      0.00000000</i>
   <i type="int" name="NOMEGA">     0</i>
   <i type="int" name="NOMEGAR">     0</i>
   <i type="int" name="NBANDSGW">    -1</i>
   <i type="int" name="NBANDSO">    -1</i>
   <i type="int" name="NBANDSV">    -1</i>
   <i type="int" name="NELM">     1</i>
   <i type="int" name="NELMHF">     1</i>
   <i type="int" name="DIM">     3</i>
   <i type="int" name="IESPILON">     4</i>
   <i type="int" name="ANTIRES">     0</i>
   <i name="OMEGAMAX">    -30.00000000</i>
   <i name="OMEGAMIN">    -30.00000000</i>
   <i name="OMEGATL">   -200.00000000</i>
   <i type="int" name="OMEGAGRID">     0</i>
   <i name="CSHIFT">     -0.10000000</i>
   <i type="logical" name="LSELFENERGY"> F  </i>
   <i type="logical" name="LSPECTRAL"> F  </i>
   <i type="logical" name="LSPECTRALGW"> F  </i>
   <i type="logical" name="LSINGLES"> F  </i>
   <i type="logical" name="LFERMIGW"> F  </i>
   <i type="logical" name="ODDONLYGW"> F  </i>
   <i type="logical" name="EVENONLYGW"> F  </i>
   <i type="int" name="NKREDLFX">     1</i>
   <i type="int" name="NKREDLFY">     1</i>
   <i type="int" name="NKREDLFZ">     1</i>
   <i type="int" name="MAXMEM">  2800</i>
   <i type="int" name="TELESCOPE">     0</i>
   <i type="int" name="NTAUPAR">    -1</i>
   <i type="int" name="NOMEGAPAR">    -1</i>
   <i name="DAMP_NEWTON">      0.80000001</i>
   <i name="LAMBDA">      1.00000000</i>
  </separator>
  <separator name="External order field" >
   <i name="OFIELD_KAPPA">      0.00000000</i>
   <v name="OFIELD_K">      0.00000000      0.00000000      0.00000000</v>
   <i name="OFIELD_Q6_NEAR">      0.00000000</i>
   <i name="OFIELD_Q6_FAR">      0.00000000</i>
   <i name="OFIELD_A">      0.00000000</i>
  </separator>
 </parameters>
 <atominfo>
  <atoms>     112 </atoms>
  <types>       2 </types>
  <array name="atoms" >
   <dimension dim="1">ion</dimension>
   <field type="string">element</field>
   <field type="int">atomtype</field>
   <set>
    <rc><c>B </c><c>   1</c></rc>
    <rc><c>B </c><c>   1</c></rc>
    <rc><c>B </c><c>   1</c></rc>
    <rc><c>B </c><c>   1</c></rc>
    <rc><c>B </c><c>   1</c></rc>
    <rc><c>B </c><c>   1</c></rc>
    <rc><c>B </c><c>   1</c></rc>
    <rc><c>B </c><c>   1</c></rc>
    <rc><c>B </c><c>   1</c></rc>
    <rc><c>B </c><c>   1</c></rc>
    <rc><c>B </c><c>   1</c></rc>
    <rc><c>B </c><c>   1</c></rc>
    <rc><c>B </c><c>   1</c></rc>
    <rc><c>B </c><c>   1</c></rc>
    <rc><c>B </c><c>   1</c></rc>
    <rc><c>B </c><c>   1</c></rc>
    <rc><c>B </c><c>   1</c></rc>
    <rc><c>B </c><c>   1</c></rc>
    <rc><c>B </c><c>   1</c></rc>
    <rc><c>B </c><c>   1</c></rc>
    <rc><c>B </c><c>   1</c></rc>
    <rc><c>B </c><c>   1</c></rc>
    <rc><c>B </c><c>   1</c></rc>
    <rc><c>B </c><c>   1</c></rc>
    <rc><c>B </c><c>   1</c></rc>
    <rc><c>B </c><c>   1</c></rc>
    <rc><c>B </c><c>   1</c></rc>
    <rc><c>B </c><c>   1</c></rc>
    <rc><c>B </c><c>   1</c></rc>
    <rc><c>B </c><c>   1</c></rc>
    <rc><c>B </c><c>   1</c></rc>
    <rc><c>B </c><c>   1</c></rc>
    <rc><c>B </c><c>   1</c></rc>
    <rc><c>B </c><c>   1</c></rc>
    <rc><c>B </c><c>   1</c></rc>
    <rc><c>B </c><c>   1</c></rc>
    <rc><c>B </c><c>   1</c></rc>
    <rc><c>B </c><c>   1</c></rc>
    <rc><c>B </c><c>   1</c></rc>
    <rc><c>B </c><c>   1</c></rc>
    <rc><c>B </c><c>   1</c></rc>
    <rc><c>B </c><c>   1</c></rc>
    <rc><c>B </c><c>   1</c></rc>
    <rc><c>B </c><c>   1</c></rc>
    <rc><c>B </c><c>   1</c></rc>
    <rc><c>B </c><c>   1</c></rc>
    <rc><c>B </c><c>   1</c></rc>
    <rc><c>B </c><c>   1</c></rc>
    <rc><c>B </c><c>   1</c></rc>
    <rc><c>B </c><c>   1</c></rc>
    <rc><c>B </c><c>   1</c></rc>
    <rc><c>B </c><c>   1</c></rc>
    <rc><c>B </c><c>   1</c></rc>
    <rc><c>B </c><c>   1</c></rc>
    <rc><c>B </c><c>   1</c></rc>
    <rc><c>B </c><c>   1</c></rc>
    <rc><c>B </c><c>   1</c></rc>
    <rc><c>B </c><c>   1</c></rc>
    <rc><c>B </c><c>   1</c></rc>
    <rc><c>B </c><c>   1</c></rc>
    <rc><c>B </c><c>   1</c></rc>
    <rc><c>B </c><c>   1</c></rc>
    <rc><c>B </c><c>   1</c></rc>
    <rc><c>B </c><c>   1</c></rc>
    <rc><c>B </c><c>   1</c></rc>
    <rc><c>B </c><c>   1</c></rc>
    <rc><c>B </c><c>   1</c></rc>
    <rc><c>B </c><c>   1</c></rc>
    <rc><c>B </c><c>   1</c></rc>
    <rc><c>B </c><c>   1</c></rc>
    <rc><c>B </c><c>   1</c></rc>
    <rc><c>B </c><c>   1</c></rc>
    <rc><c>B </c><c>   1</c></rc>
    <rc><c>B </c><c>   1</c></rc>
    <rc><c>B </c><c>   1</c></rc>
    <rc><c>B </c><c>   1</c></rc>
    <rc><c>B </c><c>   1</c></rc>
    <rc><c>B </c><c>   1</c></rc>
    <rc><c>B </c><c>   1</c></rc>
    <rc><c>B </c><c>   1</c></rc>
    <rc><c>B </c><c>   1</c></rc>
    <rc><c>B </c><c>   1</c></rc>
    <rc><c>B </c><c>   1</c></rc>
    <rc><c>B </c><c>   1</c></rc>
    <rc><c>B </c><c>   1</c></rc>
    <rc><c>B </c><c>   1</c></rc>
    <rc><c>B </c><c>   1</c></rc>
    <rc><c>B </c><c>   1</c></rc>
    <rc><c>B </c><c>   1</c></rc>
    <rc><c>B </c><c>   1</c></rc>
    <rc><c>B </c><c>   1</c></rc>
    <rc><c>B </c><c>   1</c></rc>
    <rc><c>B </c><c>   1</c></rc>
    <rc><c>B </c><c>   1</c></rc>
    <rc><c>B </c><c>   1</c></rc>
    <rc><c>B </c><c>   1</c></rc>
    <rc><c>C </c><c>   2</c></rc>
    <rc><c>C </c><c>   2</c></rc>
    <rc><c>C </c><c>   2</c></rc>
    <rc><c>C </c><c>   2</c></rc>
    <rc><c>C </c><c>   2</c></rc>
    <rc><c>C </c><c>   2</c></rc>
    <rc><c>C </c><c>   2</c></rc>
    <rc><c>C </c><c>   2</c></rc>
    <rc><c>C </c><c>   2</c></rc>
    <rc><c>C </c><c>   2</c></rc>
    <rc><c>C </c><c>   2</c></rc>
    <rc><c>C </c><c>   2</c></rc>
    <rc><c>C </c><c>   2</c></rc>
    <rc><c>C </c><c>   2</c></rc>
    <rc><c>C </c><c>   2</c></rc>
    <rc><c>C </c><c>   2</c></rc>
   </set>
  </array>
  <array name="atomtypes" >
   <dimension dim="1">type</dimension>
   <field type="int">atomspertype</field>
   <field type="string">element</field>
   <field>mass</field>
   <field>valence</field>
   <field type="string">pseudopotential</field>
   <set>
    <rc><c>  96</c><c>B </c><c>     10.81100000</c><c>      3.00000000</c><c>  PAW_PBE B 06Sep2000                   </c></rc>
    <rc><c>  16</c><c>C </c><c>     12.01100000</c><c>      4.00000000</c><c>  PAW_PBE C 08Apr2002                   </c></rc>
   </set>
  </array>
 </atominfo>
 <structure name="initialpos" >
  <crystal>
   <varray name="basis" >
    <v>       9.06587500       0.06980600       4.14288100 </v>
    <v>       2.68945300       8.65805000       4.14288100 </v>
    <v>       0.09401900       0.06980600       9.96718100 </v>
   </varray>
   <i name="volume">    775.29144609 </i>
   <varray name="rec_basis" >
    <v>       0.11093525      -0.03407332      -0.00080780 </v>
    <v>      -0.00052441       0.11604888      -0.00080781 </v>
    <v>      -0.04589251      -0.03407333       0.10100080 </v>
   </varray>
  </crystal>
  <varray name="positions" >
   <v>       0.16039500       0.40051500       0.40051500 </v>
   <v>       0.16039500       0.40051500       0.90051500 </v>
   <v>       0.16039500       0.90051500       0.40051500 </v>
   <v>       0.16039500       0.90051500       0.90051500 </v>
   <v>       0.66039500       0.40051500       0.40051500 </v>
   <v>       0.66039500       0.40051500       0.90051500 </v>
   <v>       0.66039500       0.90051500       0.40051500 </v>
   <v>       0.66039500       0.90051500       0.90051500 </v>
   <v>       0.40051500       0.40051500       0.16039500 </v>
   <v>       0.40051500       0.40051500       0.66039500 </v>
   <v>       0.40051500       0.90051500       0.16039500 </v>
   <v>       0.40051500       0.90051500       0.66039500 </v>
   <v>       0.90051500       0.40051500       0.16039500 </v>
   <v>       0.90051500       0.40051500       0.66039500 </v>
   <v>       0.90051500       0.90051500       0.16039500 </v>
   <v>       0.90051500       0.90051500       0.66039500 </v>
   <v>       0.40051500       0.16039500       0.40051500 </v>
   <v>       0.40051500       0.16039500       0.90051500 </v>
   <v>       0.40051500       0.66039500       0.40051500 </v>
   <v>       0.40051500       0.66039500       0.90051500 </v>
   <v>       0.90051500       0.16039500       0.40051500 </v>
   <v>       0.90051500       0.16039500       0.90051500 </v>
   <v>       0.90051500       0.66039500       0.40051500 </v>
   <v>       0.90051500       0.66039500       0.90051500 </v>
   <v>       0.33960500       0.09948500       0.09948500 </v>
   <v>       0.33960500       0.09948500       0.59948500 </v>
   <v>       0.33960500       0.59948500       0.09948500 </v>
   <v>       0.33960500       0.59948500       0.59948500 </v>
   <v>       0.83960500       0.09948500       0.09948500 </v>
   <v>       0.83960500       0.09948500       0.59948500 </v>
   <v>       0.83960500       0.59948500       0.09948500 </v>
   <v>       0.83960500       0.59948500       0.59948500 </v>
   <v>       0.09948500       0.09948500       0.33960500 </v>
   <v>       0.09948500       0.09948500       0.83960500 </v>
   <v>       0.09948500       0.59948500       0.33960500 </v>
   <v>       0.09948500       0.59948500       0.83960500 </v>
   <v>       0.59948500       0.09948500       0.33960500 </v>
   <v>       0.59948500       0.09948500       0.83960500 </v>
   <v>       0.59948500       0.59948500       0.33960500 </v>
   <v>       0.59948500       0.59948500       0.83960500 </v>
   <v>       0.09948500       0.33960500       0.09948500 </v>
   <v>       0.09948500       0.33960500       0.59948500 </v>
   <v>       0.09948500       0.83960500       0.09948500 </v>
   <v>       0.09948500       0.83960500       0.59948500 </v>
   <v>       0.59948500       0.33960500       0.09948500 </v>
   <v>       0.59948500       0.33960500       0.59948500 </v>
   <v>       0.59948500       0.83960500       0.09948500 </v>
   <v>       0.59948500       0.83960500       0.59948500 </v>
   <v>       0.33229300       0.00011500       0.00011500 </v>
   <v>       0.33229300       0.00011500       0.50011500 </v>
   <v>       0.33229300       0.50011500       0.00011500 </v>
   <v>       0.33229300       0.50011500       0.50011500 </v>
   <v>       0.83229300       0.00011500       0.00011500 </v>
   <v>       0.83229300       0.00011500       0.50011500 </v>
   <v>       0.83229300       0.50011500       0.00011500 </v>
   <v>       0.83229300       0.50011500       0.50011500 </v>
   <v>       0.00011500       0.00011500       0.33229300 </v>
   <v>       0.00011500       0.00011500       0.83229300 </v>
   <v>       0.00011500       0.50011500       0.33229300 </v>
   <v>       0.00011500       0.50011500       0.83229300 </v>
   <v>       0.50011500       0.00011500       0.33229300 </v>
   <v>       0.50011500       0.00011500       0.83229300 </v>
   <v>       0.50011500       0.50011500       0.33229300 </v>
   <v>       0.50011500       0.50011500       0.83229300 </v>
   <v>       0.00011500       0.33229300       0.00011500 </v>
   <v>       0.00011500       0.33229300       0.50011500 </v>
   <v>       0.00011500       0.83229300       0.00011500 </v>
   <v>       0.00011500       0.83229300       0.50011500 </v>
   <v>       0.50011500       0.33229300       0.00011500 </v>
   <v>       0.50011500       0.33229300       0.50011500 </v>
   <v>       0.50011500       0.83229300       0.00011500 </v>
   <v>       0.50011500       0.83229300       0.50011500 </v>
   <v>       0.16770700       0.99988500       0.99988500 </v>
   <v>       0.16770700       0.99988500       0.49988500 </v>
   <v>       0.16770700       0.49988500       0.99988500 </v>
   <v>       0.16770700       0.49988500       0.49988500 </v>
   <v>       0.66770700       0.99988500       0.99988500 </v>
   <v>       0.66770700       0.99988500       0.49988500 </v>
   <v>       0.66770700       0.49988500       0.99988500 </v>
   <v>       0.66770700       0.49988500       0.49988500 </v>
   <v>       0.99988500       0.99988500       0.16770700 </v>
   <v>       0.99988500       0.99988500       0.66770700 </v>
   <v>       0.99988500       0.49988500       0.16770700 </v>
   <v>       0.99988500       0.49988500       0.66770700 </v>
   <v>       0.49988500       0.99988500       0.16770700 </v>
   <v>       0.49988500       0.99988500       0.66770700 </v>
   <v>       0.49988500       0.49988500       0.16770700 </v>
   <v>       0.49988500       0.49988500       0.66770700 </v>
   <v>       0.99988500       0.16770700       0.99988500 </v>
   <v>       0.99988500       0.16770700       0.49988500 </v>
   <v>       0.99988500       0.66770700       0.99988500 </v>
   <v>       0.99988500       0.66770700       0.49988500 </v>
   <v>       0.49988500       0.16770700       0.99988500 </v>
   <v>       0.49988500       0.16770700       0.49988500 </v>
   <v>       0.49988500       0.66770700       0.99988500 </v>
   <v>       0.49988500       0.66770700       0.49988500 </v>
   <v>       0.31539700       0.31539700       0.31539700 </v>
   <v>       0.31539700       0.31539700       0.81539700 </v>
   <v>       0.31539700       0.81539700       0.31539700 </v>
   <v>       0.31539700       0.81539700       0.81539700 </v>
   <v>       0.81539700       0.31539700       0.31539700 </v>
   <v>       0.81539700       0.31539700       0.81539700 </v>
   <v>       0.81539700       0.81539700       0.31539700 </v>
   <v>       0.81539700       0.81539700       0.81539700 </v>
   <v>       0.18460300       0.18460300       0.18460300 </v>
   <v>       0.18460300       0.18460300       0.68460300 </v>
   <v>       0.18460300       0.68460300       0.18460300 </v>
   <v>       0.18460300       0.68460300       0.68460300 </v>
   <v>       0.68460300       0.18460300       0.18460300 </v>
   <v>       0.68460300       0.18460300       0.68460300 </v>
   <v>       0.68460300       0.68460300       0.18460300 </v>
   <v>       0.68460300       0.68460300       0.68460300 </v>
  </varray>
 </structure>
 <calculation>
  <scstep>
   <time name="dav">    3.07    3.07</time>
   <time name="total">    3.34    3.34</time>
   <energy>
    <i name="alphaZ">   1148.69131244 </i>
    <i name="ewald"> -10395.28541032 </i>
    <i name="hartreedc">   -970.87163020 </i>
    <i name="XCdc">    926.15980560 </i>
    <i name="pawpsdc">   5912.33983061 </i>
    <i name="pawaedc">  -5839.33960861 </i>
    <i name="eentropy">      0.00000000 </i>
    <i name="bandstr">   1499.30573030 </i>
    <i name="atom">   9186.75495500 </i>
    <i name="e_fr_energy">   1467.75498483 </i>
    <i name="e_wo_entrp">   1467.75498483 </i>
    <i name="e_0_energy">   1467.75498483 </i>
   </energy>
  </scstep>
  <scstep>
   <time name="dav">    3.58    3.59</time>
   <time name="total">    3.59    3.59</time>
   <energy>
    <i name="e_fr_energy">   -717.43724339 </i>
    <i name="e_wo_entrp">   -717.43724339 </i>
    <i name="e_0_energy">   -717.43724339 </i>
   </energy>
  </scstep>
  <scstep>
   <time name="dav">    3.45    3.46</time>
   <time name="total">    3.46    3.47</time>
   <energy>
    <i name="e_fr_energy">   -843.45891886 </i>
    <i name="e_wo_entrp">   -843.45891886 </i>
    <i name="e_0_energy">   -843.45891886 </i>
   </energy>
  </scstep>
  <scstep>
   <time name="dav">    3.41    3.42</time>
   <time name="total">    3.41    3.43</time>
   <energy>
    <i name="e_fr_energy">   -846.00072131 </i>
    <i name="e_wo_entrp">   -846.00072131 </i>
    <i name="e_0_energy">   -846.00072131 </i>
   </energy>
  </scstep>
  <scstep>
   <time name="dav">    3.41    3.42</time>
   <time name="total">    4.94    4.94</time>
   <energy>
    <i name="e_fr_energy">   -846.06022611 </i>
    <i name="e_wo_entrp">   -846.06022611 </i>
    <i name="e_0_energy">   -846.06022611 </i>
   </energy>
  </scstep>
  <scstep>
   <time name="diag">    0.65    0.65</time>
   <time name="diis">    2.78    2.76</time>
   <time name="orth">    0.02    0.02</time>
   <time name="total">    5.19    5.17</time>
   <energy>
    <i name="e_fr_energy">   -798.20542829 </i>
    <i name="e_wo_entrp">   -798.20542829 </i>
    <i name="e_0_energy">   -798.20542829 </i>
   </energy>
  </scstep>
  <scstep>
   <time name="diag">    0.65    0.65</time>
   <time name="diis">    2.79    2.76</time>
   <time name="orth">    0.02    0.02</time>
   <time name="total">    5.20    5.17</time>
   <energy>
    <i name="e_fr_energy">   -784.80816857 </i>
    <i name="e_wo_entrp">   -784.80816857 </i>
    <i name="e_0_energy">   -784.80816857 </i>
   </energy>
  </scstep>
  <scstep>
   <time name="diag">    0.65    0.65</time>
   <time name="diis">    2.78    2.77</time>
   <time name="orth">    0.02    0.02</time>
   <time name="total">    5.18    5.17</time>
   <energy>
    <i name="e_fr_energy">   -784.92737645 </i>
    <i name="e_wo_entrp">   -784.92737645 </i>
    <i name="e_0_energy">   -784.92737645 </i>
   </energy>
  </scstep>
  <scstep>
   <time name="diag">    0.65    0.65</time>
   <time name="diis">    2.78    2.75</time>
   <time name="orth">    0.02    0.02</time>
   <time name="total">    5.18    5.16</time>
   <energy>
    <i name="e_fr_energy">   -785.01254922 </i>
    <i name="e_wo_entrp">   -785.01254922 </i>
    <i name="e_0_energy">   -785.01254922 </i>
   </energy>
  </scstep>
  <scstep>
   <time name="diag">    0.65    0.65</time>
   <time name="diis">    2.77    2.76</time>
   <time name="orth">    0.02    0.02</time>
   <time name="total">    5.19    5.18</time>
   <energy>
    <i name="e_fr_energy">   -784.98630666 </i>
    <i name="e_wo_entrp">   -784.98630666 </i>
    <i name="e_0_energy">   -784.98630666 </i>
   </energy>
  </scstep>
  <scstep>
   <time name="diag">    0.65    0.65</time>
   <time name="diis">    2.81    2.78</time>
   <time name="orth">    0.02    0.02</time>
   <time name="total">    5.23    5.21</time>
   <energy>
    <i name="e_fr_energy">   -784.98659737 </i>
    <i name="e_wo_entrp">   -784.98659737 </i>
    <i name="e_0_energy">   -784.98659737 </i>
   </energy>
  </scstep>
  <scstep>
   <time name="diag">    0.65    0.65</time>
   <time name="diis">    2.84    2.83</time>
   <time name="orth">    0.02    0.02</time>
   <time name="total">    5.26    5.25</time>
   <energy>
    <i name="e_fr_energy">   -784.98753136 </i>
    <i name="e_wo_entrp">   -784.98753136 </i>
    <i name="e_0_energy">   -784.98753136 </i>
   </energy>
  </scstep>
  <scstep>
   <time name="diag">    0.65    0.65</time>
   <time name="diis">    2.81    2.79</time>
   <time name="orth">    0.02    0.02</time>
   <time name="total">    5.22    5.21</time>
   <energy>
    <i name="e_fr_energy">   -784.98778848 </i>
    <i name="e_wo_entrp">   -784.98778848 </i>
    <i name="e_0_energy">   -784.98778848 </i>
   </energy>
  </scstep>
  <scstep>
   <time name="diag">    0.65    0.65</time>
   <time name="diis">    2.79    2.77</time>
   <time name="orth">    0.02    0.02</time>
   <time name="total">    5.20    5.17</time>
   <energy>
    <i name="e_fr_energy">   -784.98790434 </i>
    <i name="e_wo_entrp">   -784.98790434 </i>
    <i name="e_0_energy">   -784.98790434 </i>
   </energy>
  </scstep>
  <scstep>
   <time name="diag">    0.65    0.65</time>
   <time name="diis">    2.80    2.78</time>
   <time name="orth">    0.02    0.02</time>
   <time name="total">    5.22    5.21</time>
   <energy>
    <i name="e_fr_energy">   -784.98784893 </i>
    <i name="e_wo_entrp">   -784.98784893 </i>
    <i name="e_0_energy">   -784.98784893 </i>
   </energy>
  </scstep>
  <scstep>
   <time name="diag">    0.65    0.65</time>
   <time name="diis">    2.65    2.63</time>
   <time name="orth">    0.02    0.02</time>
   <time name="total">    5.07    5.05</time>
   <energy>
    <i name="e_fr_energy">   -784.98790447 </i>
    <i name="e_wo_entrp">   -784.98790447 </i>
    <i name="e_0_energy">   -784.98790447 </i>
   </energy>
  </scstep>
  <scstep>
   <time name="diag">    0.66    0.66</time>
   <time name="diis">    2.09    2.07</time>
   <time name="orth">    0.02    0.02</time>
   <time name="total">    4.51    4.49</time>
   <energy>
    <i name="e_fr_energy">   -784.98791152 </i>
    <i name="e_wo_entrp">   -784.98791152 </i>
    <i name="e_0_energy">   -784.98791152 </i>
   </energy>
  </scstep>
  <scstep>
   <time name="diag">    0.66    0.66</time>
   <time name="diis">    1.86    1.85</time>
   <time name="orth">    0.02    0.02</time>
   <time name="total">    4.30    4.29</time>
   <energy>
    <i name="e_fr_energy">   -784.98790801 </i>
    <i name="e_wo_entrp">   -784.98790801 </i>
    <i name="e_0_energy">   -784.98790801 </i>
   </energy>
  </scstep>
  <scstep>
   <time name="diag">    0.65    0.65</time>
   <time name="diis">    1.74    1.73</time>
   <time name="orth">    0.02    0.02</time>
   <time name="total">    4.16    4.18</time>
   <energy>
    <i name="e_fr_energy">   -784.98790645 </i>
    <i name="e_wo_entrp">   -784.98790645 </i>
    <i name="e_0_energy">   -784.98790645 </i>
   </energy>
  </scstep>
  <scstep>
   <time name="diag">    0.65    0.65</time>
   <time name="diis">    1.47    1.47</time>
   <time name="orth">    0.02    0.02</time>
   <time name="total">    3.92    3.91</time>
   <energy>
    <i name="e_fr_energy">   -784.98791061 </i>
    <i name="e_wo_entrp">   -784.98791061 </i>
    <i name="e_0_energy">   -784.98791061 </i>
   </energy>
  </scstep>
  <scstep>
   <time name="diag">    0.65    0.65</time>
   <time name="diis">    1.43    1.42</time>
   <time name="orth">    0.02    0.02</time>
   <time name="total">    3.85    3.84</time>
   <energy>
    <i name="e_fr_energy">   -784.98790948 </i>
    <i name="e_wo_entrp">   -784.98790948 </i>
    <i name="e_0_energy">   -784.98790948 </i>
   </energy>
  </scstep>
  <scstep>
   <time name="diag">    0.65    0.65</time>
   <time name="diis">    1.36    1.36</time>
   <time name="orth">    0.02    0.02</time>
   <time name="total">    2.27    2.27</time>
   <energy>
    <i name="alphaZ">   1148.69131244 </i>
    <i name="ewald"> -10395.28541032 </i>
    <i name="hartreedc">  -1438.90792407 </i>
    <i name="XCdc">    959.51439284 </i>
    <i name="pawpsdc">  40353.99197226 </i>
    <i name="pawaedc"> -40293.81111641 </i>
    <i name="eentropy">      0.00000000 </i>
    <i name="bandstr">   -305.93609096 </i>
    <i name="atom">   9186.75495500 </i>
    <i name="e_fr_energy">   -784.98790921 </i>
    <i name="e_wo_entrp">   -784.98790921 </i>
    <i name="e_0_energy">   -784.98790921 </i>
   </energy>
  </scstep>
  <structure>
   <crystal>
    <varray name="basis" >
     <v>       9.06587500       0.06980600       4.14288100 </v>
     <v>       2.68945300       8.65805000       4.14288100 </v>
     <v>       0.09401900       0.06980600       9.96718100 </v>
    </varray>
    <i name="volume">    775.29144609 </i>
    <varray name="rec_basis" >
     <v>       0.11093525      -0.03407332      -0.00080780 </v>
     <v>      -0.00052441       0.11604888      -0.00080781 </v>
     <v>      -0.04589251      -0.03407333       0.10100080 </v>
    </varray>
   </crystal>
   <varray name="positions" >
    <v>       0.16039500       0.40051500       0.40051500 </v>
    <v>       0.16039500       0.40051500       0.90051500 </v>
    <v>       0.16039500       0.90051500       0.40051500 </v>
    <v>       0.16039500       0.90051500       0.90051500 </v>
    <v>       0.66039500       0.40051500       0.40051500 </v>
    <v>       0.66039500       0.40051500       0.90051500 </v>
    <v>       0.66039500       0.90051500       0.40051500 </v>
    <v>       0.66039500       0.90051500       0.90051500 </v>
    <v>       0.40051500       0.40051500       0.16039500 </v>
    <v>       0.40051500       0.40051500       0.66039500 </v>
    <v>       0.40051500       0.90051500       0.16039500 </v>
    <v>       0.40051500       0.90051500       0.66039500 </v>
    <v>       0.90051500       0.40051500       0.16039500 </v>
    <v>       0.90051500       0.40051500       0.66039500 </v>
    <v>       0.90051500       0.90051500       0.16039500 </v>
    <v>       0.90051500       0.90051500       0.66039500 </v>
    <v>       0.40051500       0.16039500       0.40051500 </v>
    <v>       0.40051500       0.16039500       0.90051500 </v>
    <v>       0.40051500       0.66039500       0.40051500 </v>
    <v>       0.40051500       0.66039500       0.90051500 </v>
    <v>       0.90051500       0.16039500       0.40051500 </v>
    <v>       0.90051500       0.16039500       0.90051500 </v>
    <v>       0.90051500       0.66039500       0.40051500 </v>
    <v>       0.90051500       0.66039500       0.90051500 </v>
    <v>       0.33960500       0.09948500       0.09948500 </v>
    <v>       0.33960500       0.09948500       0.59948500 </v>
    <v>       0.33960500       0.59948500       0.09948500 </v>
    <v>       0.33960500       0.59948500       0.59948500 </v>
    <v>       0.83960500       0.09948500       0.09948500 </v>
    <v>       0.83960500       0.09948500       0.59948500 </v>
    <v>       0.83960500       0.59948500       0.09948500 </v>
    <v>       0.83960500       0.59948500       0.59948500 </v>
    <v>       0.09948500       0.09948500       0.33960500 </v>
    <v>       0.09948500       0.09948500       0.83960500 </v>
    <v>       0.09948500       0.59948500       0.33960500 </v>
    <v>       0.09948500       0.59948500       0.83960500 </v>
    <v>       0.59948500       0.09948500       0.33960500 </v>
    <v>       0.59948500       0.09948500       0.83960500 </v>
    <v>       0.59948500       0.59948500       0.33960500 </v>
    <v>       0.59948500       0.59948500       0.83960500 </v>
    <v>       0.09948500       0.33960500       0.09948500 </v>
    <v>       0.09948500       0.33960500       0.59948500 </v>
    <v>       0.09948500       0.83960500       0.09948500 </v>
    <v>       0.09948500       0.83960500       0.59948500 </v>
    <v>       0.59948500       0.33960500       0.09948500 </v>
    <v>       0.59948500       0.33960500       0.59948500 </v>
    <v>       0.59948500       0.83960500       0.09948500 </v>
    <v>       0.59948500       0.83960500       0.59948500 </v>
    <v>       0.33229300       0.00011500       0.00011500 </v>
    <v>       0.33229300       0.00011500       0.50011500 </v>
    <v>       0.33229300       0.50011500       0.00011500 </v>
    <v>       0.33229300       0.50011500       0.50011500 </v>
    <v>       0.83229300       0.00011500       0.00011500 </v>
    <v>       0.83229300       0.00011500       0.50011500 </v>
    <v>       0.83229300       0.50011500       0.00011500 </v>
    <v>       0.83229300       0.50011500       0.50011500 </v>
    <v>       0.00011500       0.00011500       0.33229300 </v>
    <v>       0.00011500       0.00011500       0.83229300 </v>
    <v>       0.00011500       0.50011500       0.33229300 </v>
    <v>       0.00011500       0.50011500       0.83229300 </v>
    <v>       0.50011500       0.00011500       0.33229300 </v>
    <v>       0.50011500       0.00011500       0.83229300 </v>
    <v>       0.50011500       0.50011500       0.33229300 </v>
    <v>       0.50011500       0.50011500       0.83229300 </v>
    <v>       0.00011500       0.33229300       0.00011500 </v>
    <v>       0.00011500       0.33229300       0.50011500 </v>
    <v>       0.00011500       0.83229300       0.00011500 </v>
    <v>       0.00011500       0.83229300       0.50011500 </v>
    <v>       0.50011500       0.33229300       0.00011500 </v>
    <v>       0.50011500       0.33229300       0.50011500 </v>
    <v>       0.50011500       0.83229300       0.00011500 </v>
    <v>       0.50011500       0.83229300       0.50011500 </v>
    <v>       0.16770700       0.99988500       0.99988500 </v>
    <v>       0.16770700       0.99988500       0.49988500 </v>
    <v>       0.16770700       0.49988500       0.99988500 </v>
    <v>       0.16770700       0.49988500       0.49988500 </v>
    <v>       0.66770700       0.99988500       0.99988500 </v>
    <v>       0.66770700       0.99988500       0.49988500 </v>
    <v>       0.66770700       0.49988500       0.99988500 </v>
    <v>       0.66770700       0.49988500       0.49988500 </v>
    <v>       0.99988500       0.99988500       0.16770700 </v>
    <v>       0.99988500       0.99988500       0.66770700 </v>
    <v>       0.99988500       0.49988500       0.16770700 </v>
    <v>       0.99988500       0.49988500       0.66770700 </v>
    <v>       0.49988500       0.99988500       0.16770700 </v>
    <v>       0.49988500       0.99988500       0.66770700 </v>
    <v>       0.49988500       0.49988500       0.16770700 </v>
    <v>       0.49988500       0.49988500       0.66770700 </v>
    <v>       0.99988500       0.16770700       0.99988500 </v>
    <v>       0.99988500       0.16770700       0.49988500 </v>
    <v>       0.99988500       0.66770700       0.99988500 </v>
    <v>       0.99988500       0.66770700       0.49988500 </v>
    <v>       0.49988500       0.16770700       0.99988500 </v>
    <v>       0.49988500       0.16770700       0.49988500 </v>
    <v>       0.49988500       0.66770700       0.99988500 </v>
    <v>       0.49988500       0.66770700       0.49988500 </v>
    <v>       0.31539700       0.31539700       0.31539700 </v>
    <v>       0.31539700       0.31539700       0.81539700 </v>
    <v>       0.31539700       0.81539700       0.31539700 </v>
    <v>       0.31539700       0.81539700       0.81539700 </v>
    <v>       0.81539700       0.31539700       0.31539700 </v>
    <v>       0.81539700       0.31539700       0.81539700 </v>
    <v>       0.81539700       0.81539700       0.31539700 </v>
    <v>       0.81539700       0.81539700       0.81539700 </v>
    <v>       0.18460300       0.18460300       0.18460300 </v>
    <v>       0.18460300       0.18460300       0.68460300 </v>
    <v>       0.18460300       0.68460300       0.18460300 </v>
    <v>       0.18460300       0.68460300       0.68460300 </v>
    <v>       0.68460300       0.18460300       0.18460300 </v>
    <v>       0.68460300       0.18460300       0.68460300 </v>
    <v>       0.68460300       0.68460300       0.18460300 </v>
    <v>       0.68460300       0.68460300       0.68460300 </v>
   </varray>
  </structure>
  <varray name="forces" >
   <v>      -0.18919399      -0.08736402      -0.21313178 </v>
   <v>      -0.18919399      -0.08736402      -0.21313178 </v>
   <v>      -0.18919399      -0.08736402      -0.21313178 </v>
   <v>      -0.18919399      -0.08736402      -0.21313178 </v>
   <v>      -0.18919399      -0.08736402      -0.21313178 </v>
   <v>      -0.18919399      -0.08736402      -0.21313178 </v>
   <v>      -0.18919399      -0.08736402      -0.21313178 </v>
   <v>      -0.18919399      -0.08736402      -0.21313178 </v>
   <v>      -0.11766836      -0.08736402      -0.25956439 </v>
   <v>      -0.11766836      -0.08736402      -0.25956439 </v>
   <v>      -0.11766836      -0.08736402      -0.25956439 </v>
   <v>      -0.11766836      -0.08736402      -0.25956439 </v>
   <v>      -0.11766836      -0.08736402      -0.25956439 </v>
   <v>      -0.11766836      -0.08736402      -0.25956439 </v>
   <v>      -0.11766836      -0.08736402      -0.25956439 </v>
   <v>      -0.11766836      -0.08736402      -0.25956439 </v>
   <v>      -0.13835974      -0.15583140      -0.21313178 </v>
   <v>      -0.13835974      -0.15583140      -0.21313178 </v>
   <v>      -0.13835974      -0.15583140      -0.21313178 </v>
   <v>      -0.13835974      -0.15583140      -0.21313178 </v>
   <v>      -0.13835974      -0.15583140      -0.21313178 </v>
   <v>      -0.13835974      -0.15583140      -0.21313178 </v>
   <v>      -0.13835974      -0.15583140      -0.21313178 </v>
   <v>      -0.13835974      -0.15583140      -0.21313178 </v>
   <v>       0.18919399       0.08736402       0.21313178 </v>
   <v>       0.18919399       0.08736402       0.21313178 </v>
   <v>       0.18919399       0.08736402       0.21313178 </v>
   <v>       0.18919399       0.08736402       0.21313178 </v>
   <v>       0.18919399       0.08736402       0.21313178 </v>
   <v>       0.18919399       0.08736402       0.21313178 </v>
   <v>       0.18919399       0.08736402       0.21313178 </v>
   <v>       0.18919399       0.08736402       0.21313178 </v>
   <v>       0.11766836       0.08736402       0.25956439 </v>
   <v>       0.11766836       0.08736402       0.25956439 </v>
   <v>       0.11766836       0.08736402       0.25956439 </v>
   <v>       0.11766836       0.08736402       0.25956439 </v>
   <v>       0.11766836       0.08736402       0.25956439 </v>
   <v>       0.11766836       0.08736402       0.25956439 </v>
   <v>       0.11766836       0.08736402       0.25956439 </v>
   <v>       0.11766836       0.08736402       0.25956439 </v>
   <v>       0.13835974       0.15583140       0.21313178 </v>
   <v>       0.13835974       0.15583140       0.21313178 </v>
   <v>       0.13835974       0.15583140       0.21313178 </v>
   <v>       0.13835974       0.15583140       0.21313178 </v>
   <v>       0.13835974       0.15583140       0.21313178 </v>
   <v>       0.13835974       0.15583140       0.21313178 </v>
   <v>       0.13835974       0.15583140       0.21313178 </v>
   <v>       0.13835974       0.15583140       0.21313178 </v>
   <v>      -0.19787416      -0.09224654      -0.22419938 </v>
   <v>      -0.19787416      -0.09224654      -0.22419938 </v>
   <v>      -0.19787416      -0.09224654      -0.22419938 </v>
   <v>      -0.19787416      -0.09224654      -0.22419938 </v>
   <v>      -0.19787416      -0.09224654      -0.22419938 </v>
   <v>      -0.19787416      -0.09224654      -0.22419938 </v>
   <v>      -0.19787416      -0.09224654      -0.22419938 </v>
   <v>      -0.19787416      -0.09224654      -0.22419938 </v>
   <v>      -0.12424450      -0.09224654      -0.27199788 </v>
   <v>      -0.12424450      -0.09224654      -0.27199788 </v>
   <v>      -0.12424450      -0.09224654      -0.27199788 </v>
   <v>      -0.12424450      -0.09224654      -0.27199788 </v>
   <v>      -0.12424450      -0.09224654      -0.27199788 </v>
   <v>      -0.12424450      -0.09224654      -0.27199788 </v>
   <v>      -0.12424450      -0.09224654      -0.27199788 </v>
   <v>      -0.12424450      -0.09224654      -0.27199788 </v>
   <v>      -0.14554455      -0.16272799      -0.22419938 </v>
   <v>      -0.14554455      -0.16272799      -0.22419938 </v>
   <v>      -0.14554455      -0.16272799      -0.22419938 </v>
   <v>      -0.14554455      -0.16272799      -0.22419938 </v>
   <v>      -0.14554455      -0.16272799      -0.22419938 </v>
   <v>      -0.14554455      -0.16272799      -0.22419938 </v>
   <v>      -0.14554455      -0.16272799      -0.22419938 </v>
   <v>      -0.14554455      -0.16272799      -0.22419938 </v>
   <v>       0.19787416       0.09224654       0.22419938 </v>
   <v>       0.19787416       0.09224654       0.22419938 </v>
   <v>       0.19787416       0.09224654       0.22419938 </v>
   <v>       0.19787416       0.09224654       0.22419938 </v>
   <v>       0.19787416       0.09224654       0.22419938 </v>
   <v>       0.19787416       0.09224654       0.22419938 </v>
   <v>       0.19787416       0.09224654       0.22419938 </v>
   <v>       0.19787416       0.09224654       0.22419938 </v>
   <v>       0.12424450       0.09224654       0.27199788 </v>
   <v>       0.12424450       0.09224654       0.27199788 </v>
   <v>       0.12424450       0.09224654       0.27199788 </v>
   <v>       0.12424450       0.09224654       0.27199788 </v>
   <v>       0.12424450       0.09224654       0.27199788 </v>
   <v>       0.12424450       0.09224654       0.27199788 </v>
   <v>       0.12424450       0.09224654       0.27199788 </v>
   <v>       0.12424450       0.09224654       0.27199788 </v>
   <v>       0.14554455       0.16272799       0.22419938 </v>
   <v>       0.14554455       0.16272799       0.22419938 </v>
   <v>       0.14554455       0.16272799       0.22419938 </v>
   <v>       0.14554455       0.16272799       0.22419938 </v>
   <v>       0.14554455       0.16272799       0.22419938 </v>
   <v>       0.14554455       0.16272799       0.22419938 </v>
   <v>       0.14554455       0.16272799       0.22419938 </v>
   <v>       0.14554455       0.16272799       0.22419938 </v>
   <v>      -0.23827206      -0.17690739      -0.36703849 </v>
   <v>      -0.23827206      -0.17690739      -0.36703849 </v>
   <v>      -0.23827206      -0.17690739      -0.36703849 </v>
   <v>      -0.23827206      -0.17690739      -0.36703849 </v>
   <v>      -0.23827206      -0.17690739      -0.36703849 </v>
   <v>      -0.23827206      -0.17690739      -0.36703849 </v>
   <v>      -0.23827206      -0.17690739      -0.36703849 </v>
   <v>      -0.23827206      -0.17690739      -0.36703849 </v>
   <v>       0.23827206       0.17690739       0.36703849 </v>
   <v>       0.23827206       0.17690739       0.36703849 </v>
   <v>       0.23827206       0.17690739       0.36703849 </v>
   <v>       0.23827206       0.17690739       0.36703849 </v>
   <v>       0.23827206       0.17690739       0.36703849 </v>
   <v>       0.23827206       0.17690739       0.36703849 </v>
   <v>       0.23827206       0.17690739       0.36703849 </v>
   <v>       0.23827206       0.17690739       0.36703849 </v>
  </varray>
  <varray name="stress" >
   <v>     329.35747343     -10.49500817     -21.77452997 </v>
   <v>     -10.49500817     335.70090379     -16.16668585 </v>
   <v>     -21.77452997     -16.16668585     309.95100915 </v>
  </varray>
  <energy>
   <i name="e_fr_energy">   -784.98790921 </i>
   <i name="e_wo_entrp">   -784.98790921 </i>
   <i name="e_0_energy">   -784.98790921 </i>
  </energy>
  <time name="totalsc">  115.55  115.44</time>
 </calculation>
 <calculation>
  <scstep>
   <time name="dav">    3.23    3.23</time>
   <time name="total">    4.96    4.96</time>
   <energy>
    <i name="alphaZ">   1148.69131244 </i>
    <i name="ewald"> -10471.36330065 </i>
    <i name="hartreedc">  -1389.65083914 </i>
    <i name="XCdc">    958.37214872 </i>
    <i name="pawpsdc">  40353.99935709 </i>
    <i name="pawaedc"> -40293.81850304 </i>
    <i name="eentropy">      0.00000000 </i>
    <i name="bandstr">   -278.47765054 </i>
    <i name="atom">   9186.75495500 </i>
    <i name="e_fr_energy">   -785.49252012 </i>
    <i name="e_wo_entrp">   -785.49252012 </i>
    <i name="e_0_energy">   -785.49252012 </i>
   </energy>
  </scstep>
  <scstep>
   <time name="diag">    0.65    0.65</time>
   <time name="diis">    2.80    2.79</time>
   <time name="orth">    0.02    0.02</time>
   <time name="total">    5.23    5.21</time>
   <energy>
    <i name="e_fr_energy">   -785.32788054 </i>
    <i name="e_wo_entrp">   -785.32788054 </i>
    <i name="e_0_energy">   -785.32788054 </i>
   </energy>
  </scstep>
  <scstep>
   <time name="diag">    0.65    0.65</time>
   <time name="diis">    2.77    2.75</time>
   <time name="orth">    0.02    0.02</time>
   <time name="total">    5.19    5.18</time>
   <energy>
    <i name="e_fr_energy">   -785.31643821 </i>
    <i name="e_wo_entrp">   -785.31643821 </i>
    <i name="e_0_energy">   -785.31643821 </i>
   </energy>
  </scstep>
  <scstep>
   <time name="diag">    0.65    0.65</time>
   <time name="diis">    2.82    2.78</time>
   <time name="orth">    0.02    0.02</time>
   <time name="total">    5.22    5.19</time>
   <energy>
    <i name="e_fr_energy">   -785.31464721 </i>
    <i name="e_wo_entrp">   -785.31464721 </i>
    <i name="e_0_energy">   -785.31464721 </i>
   </energy>
  </scstep>
  <scstep>
   <time name="diag">    0.65    0.65</time>
   <time name="diis">    2.81    2.79</time>
   <time name="orth">    0.02    0.02</time>
   <time name="total">    5.24    5.22</time>
   <energy>
    <i name="e_fr_energy">   -785.31624676 </i>
    <i name="e_wo_entrp">   -785.31624676 </i>
    <i name="e_0_energy">   -785.31624676 </i>
   </energy>
  </scstep>
  <scstep>
   <time name="diag">    0.65    0.65</time>
   <time name="diis">    2.83    2.79</time>
   <time name="orth">    0.02    0.02</time>
   <time name="total">    5.25    5.22</time>
   <energy>
    <i name="e_fr_energy">   -785.31533970 </i>
    <i name="e_wo_entrp">   -785.31533970 </i>
    <i name="e_0_energy">   -785.31533970 </i>
   </energy>
  </scstep>
  <scstep>
   <time name="diag">    0.65    0.65</time>
   <time name="diis">    2.85    2.82</time>
   <time name="orth">    0.02    0.02</time>
   <time name="total">    5.28    5.27</time>
   <energy>
    <i name="e_fr_energy">   -785.31517974 </i>
    <i name="e_wo_entrp">   -785.31517974 </i>
    <i name="e_0_energy">   -785.31517974 </i>
   </energy>
  </scstep>
  <scstep>
   <time name="diag">    0.66    0.67</time>
   <time name="diis">    2.84    2.81</time>
   <time name="orth">    0.02    0.02</time>
   <time name="total">    5.27    5.25</time>
   <energy>
    <i name="e_fr_energy">   -785.31544484 </i>
    <i name="e_wo_entrp">   -785.31544484 </i>
    <i name="e_0_energy">   -785.31544484 </i>
   </energy>
  </scstep>
  <scstep>
   <time name="diag">    0.65    0.65</time>
   <time name="diis">    2.45    2.43</time>
   <time name="orth">    0.02    0.02</time>
   <time name="total">    4.86    4.85</time>
   <energy>
    <i name="e_fr_energy">   -785.31534272 </i>
    <i name="e_wo_entrp">   -785.31534272 </i>
    <i name="e_0_energy">   -785.31534272 </i>
   </energy>
  </scstep>
  <scstep>
   <time name="diag">    0.65    0.65</time>
   <time name="diis">    1.93    1.93</time>
   <time name="orth">    0.02    0.02</time>
   <time name="total">    4.37    4.38</time>
   <energy>
    <i name="e_fr_energy">   -785.31532197 </i>
    <i name="e_wo_entrp">   -785.31532197 </i>
    <i name="e_0_energy">   -785.31532197 </i>
   </energy>
  </scstep>
  <scstep>
   <time name="diag">    0.65    0.65</time>
   <time name="diis">    1.75    1.76</time>
   <time name="orth">    0.02    0.02</time>
   <time name="total">    4.18    4.18</time>
   <energy>
    <i name="e_fr_energy">   -785.31531625 </i>
    <i name="e_wo_entrp">   -785.31531625 </i>
    <i name="e_0_energy">   -785.31531625 </i>
   </energy>
  </scstep>
  <scstep>
   <time name="diag">    0.65    0.65</time>
   <time name="diis">    1.55    1.54</time>
   <time name="orth">    0.02    0.02</time>
   <time name="total">    3.98    3.97</time>
   <energy>
    <i name="e_fr_energy">   -785.31531510 </i>
    <i name="e_wo_entrp">   -785.31531510 </i>
    <i name="e_0_energy">   -785.31531510 </i>
   </energy>
  </scstep>
  <scstep>
   <time name="diag">    0.65    0.65</time>
   <time name="diis">    1.42    1.41</time>
   <time name="orth">    0.02    0.02</time>
   <time name="total">    2.34    2.33</time>
   <energy>
    <i name="alphaZ">   1148.69131244 </i>
    <i name="ewald"> -10471.36330065 </i>
    <i name="hartreedc">  -1376.20109716 </i>
    <i name="XCdc">    957.91925144 </i>
    <i name="pawpsdc">  39813.72846856 </i>
    <i name="pawaedc"> -39753.38148414 </i>
    <i name="eentropy">      0.00000000 </i>
    <i name="bandstr">   -291.46342033 </i>
    <i name="atom">   9186.75495500 </i>
    <i name="e_fr_energy">   -785.31531484 </i>
    <i name="e_wo_entrp">   -785.31531484 </i>
    <i name="e_0_energy">   -785.31531484 </i>
   </energy>
  </scstep>
  <structure>
   <crystal>
    <varray name="basis" >
     <v>       9.05528261       0.03617030       4.08856307 </v>
     <v>       2.65419122       8.65764103       4.08856310 </v>
     <v>       0.04871588       0.03617032       9.93539632 </v>
    </varray>
    <i name="volume">    775.29144609 </i>
    <varray name="rec_basis" >
     <v>       0.11075733      -0.03375668      -0.00042018 </v>
     <v>      -0.00027278       0.11578696      -0.00042019 </v>
     <v>      -0.04546603      -0.03375668       0.10099606 </v>
    </varray>
   </crystal>
   <varray name="positions" >
    <v>       0.15953438       0.40003898       0.40003898 </v>
    <v>       0.15953438       0.40003898       0.90003898 </v>
    <v>       0.15953438       0.90003898       0.40003898 </v>
    <v>       0.15953438       0.90003898       0.90003898 </v>
    <v>       0.65953438       0.40003898       0.40003898 </v>
    <v>       0.65953438       0.40003898       0.90003898 </v>
    <v>       0.65953438       0.90003898       0.40003898 </v>
    <v>       0.65953438       0.90003898       0.90003898 </v>
    <v>       0.40003898       0.40003898       0.15953438 </v>
    <v>       0.40003898       0.40003898       0.65953438 </v>
    <v>       0.40003898       0.90003898       0.15953438 </v>
    <v>       0.40003898       0.90003898       0.65953438 </v>
    <v>       0.90003898       0.40003898       0.15953438 </v>
    <v>       0.90003898       0.40003898       0.65953438 </v>
    <v>       0.90003898       0.90003898       0.15953438 </v>
    <v>       0.90003898       0.90003898       0.65953438 </v>
    <v>       0.40003898       0.15953438       0.40003898 </v>
    <v>       0.40003898       0.15953438       0.90003898 </v>
    <v>       0.40003898       0.65953438       0.40003898 </v>
    <v>       0.40003898       0.65953438       0.90003898 </v>
    <v>       0.90003898       0.15953438       0.40003898 </v>
    <v>       0.90003898       0.15953438       0.90003898 </v>
    <v>       0.90003898       0.65953438       0.40003898 </v>
    <v>       0.90003898       0.65953438       0.90003898 </v>
    <v>       0.34046562       0.09996102       0.09996102 </v>
    <v>       0.34046562       0.09996102       0.59996102 </v>
    <v>       0.34046562       0.59996102       0.09996102 </v>
    <v>       0.34046562       0.59996102       0.59996102 </v>
    <v>       0.84046562       0.09996102       0.09996102 </v>
    <v>       0.84046562       0.09996102       0.59996102 </v>
    <v>       0.84046562       0.59996102       0.09996102 </v>
    <v>       0.84046562       0.59996102       0.59996102 </v>
    <v>       0.09996102       0.09996102       0.34046562 </v>
    <v>       0.09996102       0.09996102       0.84046562 </v>
    <v>       0.09996102       0.59996102       0.34046562 </v>
    <v>       0.09996102       0.59996102       0.84046562 </v>
    <v>       0.59996102       0.09996102       0.34046562 </v>
    <v>       0.59996102       0.09996102       0.84046562 </v>
    <v>       0.59996102       0.59996102       0.34046562 </v>
    <v>       0.59996102       0.59996102       0.84046562 </v>
    <v>       0.09996102       0.34046562       0.09996102 </v>
    <v>       0.09996102       0.34046562       0.59996102 </v>
    <v>       0.09996102       0.84046562       0.09996102 </v>
    <v>       0.09996102       0.84046562       0.59996102 </v>
    <v>       0.59996102       0.34046562       0.09996102 </v>
    <v>       0.59996102       0.34046562       0.59996102 </v>
    <v>       0.59996102       0.84046562       0.09996102 </v>
    <v>       0.59996102       0.84046562       0.59996102 </v>
    <v>       0.33139439      -0.00038770      -0.00038770 </v>
    <v>       0.33139439      -0.00038770       0.49961230 </v>
    <v>       0.33139439       0.49961230      -0.00038770 </v>
    <v>       0.33139439       0.49961230       0.49961230 </v>
    <v>       0.83139439      -0.00038770      -0.00038770 </v>
    <v>       0.83139439      -0.00038770       0.49961230 </v>
    <v>       0.83139439       0.49961230      -0.00038770 </v>
    <v>       0.83139439       0.49961230       0.49961230 </v>
    <v>      -0.00038770      -0.00038770       0.33139439 </v>
    <v>      -0.00038770      -0.00038770       0.83139439 </v>
    <v>      -0.00038770       0.49961230       0.33139439 </v>
    <v>      -0.00038770       0.49961230       0.83139439 </v>
    <v>       0.49961230      -0.00038770       0.33139439 </v>
    <v>       0.49961230      -0.00038770       0.83139439 </v>
    <v>       0.49961230       0.49961230       0.33139439 </v>
    <v>       0.49961230       0.49961230       0.83139439 </v>
    <v>      -0.00038770       0.33139439      -0.00038770 </v>
    <v>      -0.00038770       0.33139439       0.49961230 </v>
    <v>      -0.00038770       0.83139439      -0.00038770 </v>
    <v>      -0.00038770       0.83139439       0.49961230 </v>
    <v>       0.49961230       0.33139439      -0.00038770 </v>
    <v>       0.49961230       0.33139439       0.49961230 </v>
    <v>       0.49961230       0.83139439      -0.00038770 </v>
    <v>       0.49961230       0.83139439       0.49961230 </v>
    <v>       0.16860561       0.00038770       0.00038770 </v>
    <v>       0.16860561       0.00038770       0.50038770 </v>
    <v>       0.16860561       0.50038770       0.00038770 </v>
    <v>       0.16860561       0.50038770       0.50038770 </v>
    <v>       0.66860561       0.00038770       0.00038770 </v>
    <v>       0.66860561       0.00038770       0.50038770 </v>
    <v>       0.66860561       0.50038770       0.00038770 </v>
    <v>       0.66860561       0.50038770       0.50038770 </v>
    <v>       0.00038770       0.00038770       0.16860561 </v>
    <v>       0.00038770       0.00038770       0.66860561 </v>
    <v>       0.00038770       0.50038770       0.16860561 </v>
    <v>       0.00038770       0.50038770       0.66860561 </v>
    <v>       0.50038770       0.00038770       0.16860561 </v>
    <v>       0.50038770       0.00038770       0.66860561 </v>
    <v>       0.50038770       0.50038770       0.16860561 </v>
    <v>       0.50038770       0.50038770       0.66860561 </v>
    <v>       0.00038770       0.16860561       0.00038770 </v>
    <v>       0.00038770       0.16860561       0.50038770 </v>
    <v>       0.00038770       0.66860561       0.00038770 </v>
    <v>       0.00038770       0.66860561       0.50038770 </v>
    <v>       0.50038770       0.16860561       0.00038770 </v>
    <v>       0.50038770       0.16860561       0.50038770 </v>
    <v>       0.50038770       0.66860561       0.00038770 </v>
    <v>       0.50038770       0.66860561       0.50038770 </v>
    <v>       0.31442691       0.31442691       0.31442691 </v>
    <v>       0.31442691       0.31442691       0.81442691 </v>
    <v>       0.31442691       0.81442691       0.31442691 </v>
    <v>       0.31442691       0.81442691       0.81442691 </v>
    <v>       0.81442691       0.31442691       0.31442691 </v>
    <v>       0.81442691       0.31442691       0.81442691 </v>
    <v>       0.81442691       0.81442691       0.31442691 </v>
    <v>       0.81442691       0.81442691       0.81442691 </v>
    <v>       0.18557309       0.18557309       0.18557309 </v>
    <v>       0.18557309       0.18557309       0.68557309 </v>
    <v>       0.18557309       0.68557309       0.18557309 </v>
    <v>       0.18557309       0.68557309       0.68557309 </v>
    <v>       0.68557309       0.18557309       0.18557309 </v>
    <v>       0.68557309       0.18557309       0.68557309 </v>
    <v>       0.68557309       0.68557309       0.18557309 </v>
    <v>       0.68557309       0.68557309       0.68557309 </v>
   </varray>
  </structure>
  <varray name="forces" >
   <v>      -0.00097736      -0.04153554      -0.06168190 </v>
   <v>      -0.00097736      -0.04153554      -0.06168190 </v>
   <v>      -0.00097736      -0.04153554      -0.06168190 </v>
   <v>      -0.00097736      -0.04153554      -0.06168190 </v>
   <v>      -0.00097736      -0.04153554      -0.06168190 </v>
   <v>      -0.00097736      -0.04153554      -0.06168190 </v>
   <v>      -0.00097736      -0.04153554      -0.06168190 </v>
   <v>      -0.00097736      -0.04153554      -0.06168190 </v>
   <v>      -0.05594317      -0.04153554      -0.02599950 </v>
   <v>      -0.05594317      -0.04153554      -0.02599950 </v>
   <v>      -0.05594317      -0.04153554      -0.02599950 </v>
   <v>      -0.05594317      -0.04153554      -0.02599950 </v>
   <v>      -0.05594317      -0.04153554      -0.02599950 </v>
   <v>      -0.05594317      -0.04153554      -0.02599950 </v>
   <v>      -0.05594317      -0.04153554      -0.02599950 </v>
   <v>      -0.05594317      -0.04153554      -0.02599950 </v>
   <v>      -0.04004232       0.01108008      -0.06168190 </v>
   <v>      -0.04004232       0.01108008      -0.06168190 </v>
   <v>      -0.04004232       0.01108008      -0.06168190 </v>
   <v>      -0.04004232       0.01108008      -0.06168190 </v>
   <v>      -0.04004232       0.01108008      -0.06168190 </v>
   <v>      -0.04004232       0.01108008      -0.06168190 </v>
   <v>      -0.04004232       0.01108008      -0.06168190 </v>
   <v>      -0.04004232       0.01108008      -0.06168190 </v>
   <v>       0.00097736       0.04153554       0.06168190 </v>
   <v>       0.00097736       0.04153554       0.06168190 </v>
   <v>       0.00097736       0.04153554       0.06168190 </v>
   <v>       0.00097736       0.04153554       0.06168190 </v>
   <v>       0.00097736       0.04153554       0.06168190 </v>
   <v>       0.00097736       0.04153554       0.06168190 </v>
   <v>       0.00097736       0.04153554       0.06168190 </v>
   <v>       0.00097736       0.04153554       0.06168190 </v>
   <v>       0.05594317       0.04153554       0.02599950 </v>
   <v>       0.05594317       0.04153554       0.02599950 </v>
   <v>       0.05594317       0.04153554       0.02599950 </v>
   <v>       0.05594317       0.04153554       0.02599950 </v>
   <v>       0.05594317       0.04153554       0.02599950 </v>
   <v>       0.05594317       0.04153554       0.02599950 </v>
   <v>       0.05594317       0.04153554       0.02599950 </v>
   <v>       0.05594317       0.04153554       0.02599950 </v>
   <v>       0.04004232      -0.01108008       0.06168190 </v>
   <v>       0.04004232      -0.01108008       0.06168190 </v>
   <v>       0.04004232      -0.01108008       0.06168190 </v>
   <v>       0.04004232      -0.01108008       0.06168190 </v>
   <v>       0.04004232      -0.01108008       0.06168190 </v>
   <v>       0.04004232      -0.01108008       0.06168190 </v>
   <v>       0.04004232      -0.01108008       0.06168190 </v>
   <v>       0.04004232      -0.01108008       0.06168190 </v>
   <v>       0.50220815      -0.03902487       0.16625047 </v>
   <v>       0.50220815      -0.03902487       0.16625047 </v>
   <v>       0.50220815      -0.03902487       0.16625047 </v>
   <v>       0.50220815      -0.03902487       0.16625047 </v>
   <v>       0.50220815      -0.03902487       0.16625047 </v>
   <v>       0.50220815      -0.03902487       0.16625047 </v>
   <v>       0.50220815      -0.03902487       0.16625047 </v>
   <v>       0.50220815      -0.03902487       0.16625047 </v>
   <v>      -0.05256167      -0.03902487       0.52639288 </v>
   <v>      -0.05256167      -0.03902487       0.52639288 </v>
   <v>      -0.05256167      -0.03902487       0.52639288 </v>
   <v>      -0.05256167      -0.03902487       0.52639288 </v>
   <v>      -0.05256167      -0.03902487       0.52639288 </v>
   <v>      -0.05256167      -0.03902487       0.52639288 </v>
   <v>      -0.05256167      -0.03902487       0.52639288 </v>
   <v>      -0.05256167      -0.03902487       0.52639288 </v>
   <v>       0.10792558       0.49202451       0.16625047 </v>
   <v>       0.10792558       0.49202451       0.16625047 </v>
   <v>       0.10792558       0.49202451       0.16625047 </v>
   <v>       0.10792558       0.49202451       0.16625047 </v>
   <v>       0.10792558       0.49202451       0.16625047 </v>
   <v>       0.10792558       0.49202451       0.16625047 </v>
   <v>       0.10792558       0.49202451       0.16625047 </v>
   <v>       0.10792558       0.49202451       0.16625047 </v>
   <v>      -0.50220815       0.03902487      -0.16625047 </v>
   <v>      -0.50220815       0.03902487      -0.16625047 </v>
   <v>      -0.50220815       0.03902487      -0.16625047 </v>
   <v>      -0.50220815       0.03902487      -0.16625047 </v>
   <v>      -0.50220815       0.03902487      -0.16625047 </v>
   <v>      -0.50220815       0.03902487      -0.16625047 </v>
   <v>      -0.50220815       0.03902487      -0.16625047 </v>
   <v>      -0.50220815       0.03902487      -0.16625047 </v>
   <v>       0.05256167       0.03902487      -0.52639288 </v>
   <v>       0.05256167       0.03902487      -0.52639288 </v>
   <v>       0.05256167       0.03902487      -0.52639288 </v>
   <v>       0.05256167       0.03902487      -0.52639288 </v>
   <v>       0.05256167       0.03902487      -0.52639288 </v>
   <v>       0.05256167       0.03902487      -0.52639288 </v>
   <v>       0.05256167       0.03902487      -0.52639288 </v>
   <v>       0.05256167       0.03902487      -0.52639288 </v>
   <v>      -0.10792558      -0.49202451      -0.16625047 </v>
   <v>      -0.10792558      -0.49202451      -0.16625047 </v>
   <v>      -0.10792558      -0.49202451      -0.16625047 </v>
   <v>      -0.10792558      -0.49202451      -0.16625047 </v>
   <v>      -0.10792558      -0.49202451      -0.16625047 </v>
   <v>      -0.10792558      -0.49202451      -0.16625047 </v>
   <v>      -0.10792558      -0.49202451      -0.16625047 </v>
   <v>      -0.10792558      -0.49202451      -0.16625047 </v>
   <v>      -0.16879815      -0.12532582      -0.26001965 </v>
   <v>      -0.16879815      -0.12532582      -0.26001965 </v>
   <v>      -0.16879815      -0.12532582      -0.26001965 </v>
   <v>      -0.16879815      -0.12532582      -0.26001965 </v>
   <v>      -0.16879815      -0.12532582      -0.26001965 </v>
   <v>      -0.16879815      -0.12532582      -0.26001965 </v>
   <v>      -0.16879815      -0.12532582      -0.26001965 </v>
   <v>      -0.16879815      -0.12532582      -0.26001965 </v>
   <v>       0.16879815       0.12532582       0.26001965 </v>
   <v>       0.16879815       0.12532582       0.26001965 </v>
   <v>       0.16879815       0.12532582       0.26001965 </v>
   <v>       0.16879815       0.12532582       0.26001965 </v>
   <v>       0.16879815       0.12532582       0.26001965 </v>
   <v>       0.16879815       0.12532582       0.26001965 </v>
   <v>       0.16879815       0.12532582       0.26001965 </v>
   <v>       0.16879815       0.12532582       0.26001965 </v>
  </varray>
  <varray name="stress" >
   <v>     310.16902843      -0.85124502      -1.76613904 </v>
   <v>      -0.85124502     310.68362734      -1.31126255 </v>
   <v>      -1.76613904      -1.31126255     308.59490124 </v>
  </varray>
  <energy>
   <i name="e_fr_energy">   -785.31531484 </i>
   <i name="e_wo_entrp">   -785.31531484 </i>
   <i name="e_0_energy">   -785.31531484 </i>
  </energy>
  <time name="totalsc">   74.23   74.08</time>
 </calculation>
 <calculation>
  <scstep>
   <time name="dav">    3.26    3.26</time>
   <time name="total">    5.00    5.00</time>
   <energy>
    <i name="alphaZ">   1148.69131244 </i>
    <i name="ewald"> -10460.36679524 </i>
    <i name="hartreedc">  -1383.27006819 </i>
    <i name="XCdc">    958.08522101 </i>
    <i name="pawpsdc">  39813.73056968 </i>
    <i name="pawaedc"> -39753.38358477 </i>
    <i name="eentropy">      0.00000000 </i>
    <i name="bandstr">   -295.58320811 </i>
    <i name="atom">   9186.75495500 </i>
    <i name="e_fr_energy">   -785.34159817 </i>
    <i name="e_wo_entrp">   -785.34159817 </i>
    <i name="e_0_energy">   -785.34159817 </i>
   </energy>
  </scstep>
  <scstep>
   <time name="diag">    0.65    0.65</time>
   <time name="diis">    2.80    2.77</time>
   <time name="orth">    0.02    0.02</time>
   <time name="total">    5.20    5.18</time>
   <energy>
    <i name="e_fr_energy">   -785.32887710 </i>
    <i name="e_wo_entrp">   -785.32887710 </i>
    <i name="e_0_energy">   -785.32887710 </i>
   </energy>
  </scstep>
  <scstep>
   <time name="diag">    0.65    0.65</time>
   <time name="diis">    2.79    2.77</time>
   <time name="orth">    0.02    0.02</time>
   <time name="total">    5.20    5.18</time>
   <energy>
    <i name="e_fr_energy">   -785.32567796 </i>
    <i name="e_wo_entrp">   -785.32567796 </i>
    <i name="e_0_energy">   -785.32567796 </i>
   </energy>
  </scstep>
  <scstep>
   <time name="diag">    0.65    0.65</time>
   <time name="diis">    2.82    2.79</time>
   <time name="orth">    0.02    0.02</time>
   <time name="total">    5.25    5.23</time>
   <energy>
    <i name="e_fr_energy">   -785.32576573 </i>
    <i name="e_wo_entrp">   -785.32576573 </i>
    <i name="e_0_energy">   -785.32576573 </i>
   </energy>
  </scstep>
  <scstep>
   <time name="diag">    0.65    0.65</time>
   <time name="diis">    2.83    2.79</time>
   <time name="orth">    0.02    0.02</time>
   <time name="total">    5.26    5.22</time>
   <energy>
    <i name="e_fr_energy">   -785.32582172 </i>
    <i name="e_wo_entrp">   -785.32582172 </i>
    <i name="e_0_energy">   -785.32582172 </i>
   </energy>
  </scstep>
  <scstep>
   <time name="diag">    0.65    0.65</time>
   <time name="diis">    2.87    2.83</time>
   <time name="orth">    0.02    0.02</time>
   <time name="total">    5.32    5.28</time>
   <energy>
    <i name="e_fr_energy">   -785.32583159 </i>
    <i name="e_wo_entrp">   -785.32583159 </i>
    <i name="e_0_energy">   -785.32583159 </i>
   </energy>
  </scstep>
  <scstep>
   <time name="diag">    0.65    0.65</time>
   <time name="diis">    2.26    2.24</time>
   <time name="orth">    0.02    0.02</time>
   <time name="total">    4.67    4.65</time>
   <energy>
    <i name="e_fr_energy">   -785.32590580 </i>
    <i name="e_wo_entrp">   -785.32590580 </i>
    <i name="e_0_energy">   -785.32590580 </i>
   </energy>
  </scstep>
  <scstep>
   <time name="diag">    0.65    0.65</time>
   <time name="diis">    1.82    1.82</time>
   <time name="orth">    0.02    0.02</time>
   <time name="total">    4.23    4.24</time>
   <energy>
    <i name="e_fr_energy">   -785.32586947 </i>
    <i name="e_wo_entrp">   -785.32586947 </i>
    <i name="e_0_energy">   -785.32586947 </i>
   </energy>
  </scstep>
  <scstep>
   <time name="diag">    0.65    0.66</time>
   <time name="diis">    1.71    1.70</time>
   <time name="orth">    0.02    0.02</time>
   <time name="total">    4.14    4.14</time>
   <energy>
    <i name="e_fr_energy">   -785.32588099 </i>
    <i name="e_wo_entrp">   -785.32588099 </i>
    <i name="e_0_energy">   -785.32588099 </i>
   </energy>
  </scstep>
  <scstep>
   <time name="diag">    0.65    0.65</time>
   <time name="diis">    1.45    1.46</time>
[...]
       <r>    -7.1710    21.6774    36.0289 </r>
       <r>    -7.0808    15.3834    37.6920 </r>
       <r>    -6.9907     9.9930    38.8287 </r>
       <r>    -6.9006     5.5556    39.5212 </r>
       <r>    -6.8105     3.0987    39.8711 </r>
       <r>    -6.7204    12.9146    40.5664 </r>
       <r>    -6.6302    17.5776    42.0066 </r>
       <r>    -6.5401    12.6676    43.4450 </r>
       <r>    -6.4500     0.9562    44.0016 </r>
       <r>    -6.3599    20.4380    45.1509 </r>
       <r>    -6.2698    15.2413    46.9440 </r>
       <r>    -6.1796    24.2703    48.4690 </r>
       <r>    -6.0895    16.4416    50.5357 </r>
       <r>    -5.9994     7.0912    51.4996 </r>
       <r>    -5.9093    19.0037    52.0291 </r>
       <r>    -5.8192    19.9576    55.8317 </r>
       <r>    -5.7290    14.5931    56.4363 </r>
       <r>    -5.6389    23.6158    58.3412 </r>
       <r>    -5.5488    24.5337    60.5351 </r>
       <r>    -5.4587    58.3497    63.1885 </r>
       <r>    -5.3686    11.6935    65.2089 </r>
       <r>    -5.2784    26.1053    66.8240 </r>
       <r>    -5.1883    13.4792    69.6140 </r>
       <r>    -5.0982    18.3916    70.9209 </r>
       <r>    -5.0081    24.3059    72.8644 </r>
       <r>    -4.9180    27.5906    75.2229 </r>
       <r>    -4.8278    23.7218    77.9447 </r>
       <r>    -4.7377    17.9573    79.3159 </r>
       <r>    -4.6476    12.8029    81.5041 </r>
       <r>    -4.5575    13.4299    82.3323 </r>
       <r>    -4.4674    11.1200    83.5758 </r>
       <r>    -4.3772     0.4665    83.9989 </r>
       <r>    -4.2871    11.9069    85.3001 </r>
       <r>    -4.1970     6.7730    85.9750 </r>
       <r>    -4.1069    44.4592    88.2534 </r>
       <r>    -4.0168    21.5795    90.8900 </r>
       <r>    -3.9266    17.3744    92.6451 </r>
       <r>    -3.8365    13.1919    94.0222 </r>
       <r>    -3.7464     9.0321    95.0235 </r>
       <r>    -3.6563     4.8951    95.6509 </r>
       <r>    -3.5662     1.5473    95.9222 </r>
       <r>    -3.4760     0.2399    95.9926 </r>
       <r>    -3.3859     0.0053    96.0000 </r>
       <r>    -3.2958     0.4384    96.0102 </r>
       <r>    -3.2057     3.2627    96.1540 </r>
       <r>    -3.1156     9.1478    96.6903 </r>
       <r>    -3.0254    17.0635    97.8670 </r>
       <r>    -2.9353    28.0187    99.8201 </r>
       <r>    -2.8452    26.4570   102.5003 </r>
       <r>    -2.7551    11.4633   104.0067 </r>
       <r>    -2.6650     5.5580   104.8024 </r>
       <r>    -2.5748    14.3100   105.5741 </r>
       <r>    -2.4847    17.6720   107.1020 </r>
       <r>    -2.3946    15.4075   108.4961 </r>
       <r>    -2.3045    20.0298   110.1163 </r>
       <r>    -2.2144    23.7706   112.0911 </r>
       <r>    -2.1242    27.3495   114.3958 </r>
       <r>    -2.0341    30.1180   117.0190 </r>
       <r>    -1.9440    17.7613   119.0422 </r>
       <r>    -1.8539    29.7910   121.1190 </r>
       <r>    -1.7638    26.2006   123.8328 </r>
       <r>    -1.6736    17.2505   125.7286 </r>
       <r>    -1.5835    10.9149   126.9924 </r>
       <r>    -1.4934    56.9763   131.4391 </r>
       <r>    -1.4033    33.4449   134.5812 </r>
       <r>    -1.3132    51.6711   138.5659 </r>
       <r>    -1.2230    24.8869   141.7331 </r>
       <r>    -1.1329    48.8491   145.9575 </r>
       <r>    -1.0428     9.8500   147.5083 </r>
       <r>    -0.9527     5.5510   148.1094 </r>
       <r>    -0.8626     8.9273   148.7429 </r>
       <r>    -0.7724    33.7507   150.3110 </r>
       <r>    -0.6823    51.9207   154.4271 </r>
       <r>    -0.5922    31.0237   158.4572 </r>
       <r>    -0.5021    15.1931   160.2930 </r>
       <r>    -0.4120    39.5312   162.0362 </r>
       <r>    -0.3218    55.8888   167.0781 </r>
       <r>    -0.2317    32.9255   171.3944 </r>
       <r>    -0.1416    24.4629   173.8218 </r>
       <r>    -0.0515    31.4182   175.8666 </r>
       <r>     0.0386    22.4843   178.7635 </r>
       <r>     0.1288    10.0818   180.0722 </r>
       <r>     0.2189    10.0078   180.9453 </r>
       <r>     0.3090    11.7526   181.9300 </r>
       <r>     0.3991    14.1471   183.0824 </r>
       <r>     0.4892    17.7391   184.5126 </r>
       <r>     0.5794    22.2137   186.3062 </r>
       <r>     0.6695    38.8184   188.9337 </r>
       <r>     0.7596    19.3959   191.0375 </r>
       <r>     0.8497    29.0129   193.2330 </r>
       <r>     0.9398    19.9038   195.6215 </r>
       <r>     1.0300    34.1434   199.9695 </r>
       <r>     1.1201    39.2876   201.8457 </r>
       <r>     1.2102    47.7816   206.0747 </r>
       <r>     1.3003    31.7763   209.5212 </r>
       <r>     1.3904    79.5575   213.1701 </r>
       <r>     1.4806    43.1667   216.6919 </r>
       <r>     1.5707    30.4093   220.2770 </r>
       <r>     1.6608    32.1284   223.0796 </r>
       <r>     1.7509    48.1803   226.2586 </r>
       <r>     1.8410    75.2701   230.4734 </r>
       <r>     1.9312    22.7640   236.0080 </r>
       <r>     2.0213    11.4896   236.2784 </r>
       <r>     2.1114    94.7658   242.5198 </r>
       <r>     2.2015    65.3968   250.3436 </r>
       <r>     2.2916    36.9858   254.3126 </r>
       <r>     2.3818    25.1909   257.1277 </r>
       <r>     2.4719    13.1482   258.8247 </r>
       <r>     2.5620     5.6472   259.6447 </r>
       <r>     2.6521     4.4878   260.0139 </r>
       <r>     2.7422    18.8697   260.8647 </r>
       <r>     2.8324   105.6836   266.2387 </r>
       <r>     2.9225   104.8024   276.3807 </r>
       <r>     3.0126   150.0251   287.5223 </r>
       <r>     3.1027    18.9869   290.6209 </r>
       <r>     3.1928    16.3501   292.0662 </r>
       <r>     3.2830    25.7265   295.3719 </r>
       <r>     3.3731    38.6114   296.9167 </r>
       <r>     3.4632    30.7405   299.2417 </r>
       <r>     3.5533    61.6827   302.8752 </r>
       <r>     3.6434    45.9855   307.6973 </r>
       <r>     3.7336    36.3157   311.4669 </r>
       <r>     3.8237    46.7315   315.2539 </r>
       <r>     3.9138    24.8906   318.8288 </r>
       <r>     4.0039    27.7002   320.4576 </r>
       <r>     4.0940    50.6054   324.4895 </r>
       <r>     4.1842    55.3381   329.1890 </r>
       <r>     4.2743     4.2775   331.9591 </r>
       <r>     4.3644     4.0306   332.0642 </r>
       <r>     4.4545    47.7769   334.0898 </r>
       <r>     4.5446    59.3927   339.6544 </r>
       <r>     4.6348    33.9927   342.3460 </r>
       <r>     4.7249    29.0747   344.8049 </r>
       <r>     4.8150    16.9730   347.0220 </r>
       <r>     4.9051    10.6347   348.0644 </r>
       <r>     4.9952    11.2633   349.0423 </r>
       <r>     5.0854    51.8921   350.6520 </r>
       <r>     5.1755    10.1620   352.3844 </r>
       <r>     5.2656     5.3746   353.0357 </r>
       <r>     5.3557    18.3884   353.6918 </r>
       <r>     5.4458    13.2036   355.3715 </r>
       <r>     5.5360     2.0407   355.8328 </r>
       <r>     5.6261     0.8186   355.9575 </r>
       <r>     5.7162     0.1452   355.9968 </r>
       <r>     5.8063     0.0000   356.0000 </r>
       <r>     5.8964    66.7283   358.5769 </r>
       <r>     5.9866    35.2941   362.9492 </r>
       <r>     6.0767    38.5953   366.6216 </r>
       <r>     6.1668     0.0000   368.0000 </r>
       <r>     6.2569     0.0000   368.0000 </r>
       <r>     6.3470     0.0007   368.0000 </r>
       <r>     6.4372     0.3747   368.0118 </r>
       <r>     6.5273     1.4330   368.0881 </r>
       <r>     6.6174     3.8965   368.2974 </r>
       <r>     6.7075     8.2716   368.8605 </r>
       <r>     6.7976    10.6670   369.7288 </r>
       <r>     6.8878    11.0827   370.7237 </r>
       <r>     6.9779     9.5186   371.6668 </r>
       <r>     7.0680     9.6207   372.4696 </r>
       <r>     7.1581    21.5182   373.8438 </r>
       <r>     7.2482    19.6726   375.8422 </r>
       <r>     7.3384    15.9342   377.4189 </r>
       <r>     7.4285    13.6249   378.7445 </r>
       <r>     7.5186    36.8340   381.6688 </r>
       <r>     7.6087     9.3133   382.7374 </r>
       <r>     7.6988     5.4249   383.3907 </r>
       <r>     7.7890     2.8926   383.7572 </r>
       <r>     7.8791     1.1926   383.9357 </r>
       <r>     7.9692     0.2336   383.9944 </r>
       <r>     8.0593     0.0000   384.0000 </r>
       <r>     8.1494     0.0000   384.0000 </r>
       <r>     8.2396     0.0000   384.0000 </r>
       <r>     8.3297     0.0000   384.0000 </r>
       <r>     8.4198     0.0000   384.0000 </r>
       <r>     8.5099     0.0000   384.0000 </r>
       <r>     8.6000     0.0000   384.0000 </r>
       <r>     8.6902     0.0000   384.0000 </r>
       <r>     8.7803     0.0000   384.0000 </r>
       <r>     8.8704     0.0000   384.0000 </r>
       <r>     8.9605     0.0000   384.0000 </r>
       <r>     9.0506     0.0000   384.0000 </r>
       <r>     9.1408     0.2655   384.0078 </r>
       <r>     9.2309     1.0855   384.0645 </r>
       <r>     9.3210     2.4602   384.2201 </r>
       <r>     9.4111     4.3897   384.5246 </r>
       <r>     9.5012     7.3131   385.0299 </r>
       <r>     9.5914    11.3021   385.9135 </r>
       <r>     9.6815     9.3270   386.8879 </r>
       <r>     9.7716     6.0872   387.5224 </r>
       <r>     9.8617    15.4472   388.3041 </r>
       <r>     9.9518    21.5918   390.0696 </r>
       <r>    10.0420    20.4516   392.0021 </r>
       <r>    10.1321    16.5707   393.6609 </r>
       <r>    10.2222    12.1776   394.9671 </r>
       <r>    10.3123     7.5102   395.8064 </r>
       <r>    10.4024    15.4117   396.7242 </r>
       <r>    10.4926    23.7142   399.2825 </r>
       <r>    10.5827    10.8396   400.2717 </r>
       <r>    10.6728    18.6062   401.5247 </r>
       <r>    10.7629    37.5137   405.3223 </r>
       <r>    10.8530    46.9279   407.6146 </r>
       <r>    10.9432    11.3428   409.5626 </r>
       <r>    11.0333    14.7854   410.7452 </r>
       <r>    11.1234    16.6826   412.1792 </r>
       <r>    11.2135    17.9988   413.7036 </r>
       <r>    11.3036    17.6089   415.3199 </r>
       <r>    11.3938    74.9549   419.5531 </r>
       <r>    11.4839    14.0891   423.9468 </r>
       <r>    11.5740    12.4526   424.8447 </r>
       <r>    11.6641    26.2545   426.5513 </r>
       <r>    11.7542    26.1948   429.9494 </r>
       <r>    11.8444    26.1644   432.0120 </r>
       <r>    11.9345     8.0570   433.0154 </r>
       <r>    12.0246    11.1923   433.8873 </r>
       <r>    12.1147    13.4397   435.0027 </r>
       <r>    12.2048    15.2183   436.2971 </r>
       <r>    12.2950    16.5935   437.7335 </r>
       <r>    12.3851    17.5653   439.2758 </r>
       <r>    12.4752    18.1336   440.8874 </r>
       <r>    12.5653    18.2986   442.5321 </r>
       <r>    12.6554    23.8919   444.2283 </r>
       <r>    12.7456    40.0466   447.2281 </r>
       <r>    12.8357    18.7355   449.7302 </r>
       <r>    12.9258    10.2955   451.0107 </r>
       <r>    13.0159    14.0941   452.1704 </r>
       <r>    13.1060    15.8032   453.4929 </r>
       <r>    13.1962    18.7911   455.0763 </r>
       <r>    13.2863    19.1879   456.8067 </r>
       <r>    13.3764    14.3439   458.3946 </r>
       <r>    13.4665     7.1740   459.2556 </r>
       <r>    13.5566    27.0597   460.5606 </r>
       <r>    13.6468    22.2079   463.4371 </r>
       <r>    13.7369     8.8193   464.5231 </r>
       <r>    13.8270     8.8228   465.3063 </r>
       <r>    13.9171     3.8004   465.9349 </r>
       <r>    14.0072     0.0000   466.0000 </r>
       <r>    14.0974     0.0000   466.0000 </r>
       <r>    14.1875     0.0000   466.0000 </r>
       <r>    14.2776     0.0000   466.0000 </r>
       <r>    14.3677     0.0000   466.0000 </r>
       <r>    14.4578     0.0000   466.0000 </r>
       <r>    14.5480     0.0000   466.0000 </r>
       <r>    14.6381     0.0000   466.0000 </r>
       <r>    14.7282     0.0000   466.0000 </r>
       <r>    14.8183     0.0000   466.0000 </r>
       <r>    14.9084     0.0000   466.0000 </r>
       <r>    14.9986     0.0000   466.0000 </r>
       <r>    15.0887     0.0000   466.0000 </r>
       <r>    15.1788     0.0000   466.0000 </r>
      </set>
     </set>
    </array>
   </total>
  </dos>
 </calculation>
 <structure name="finalpos" >
  <crystal>
   <varray name="basis" >
    <v>       9.03896698      -0.01741709       4.00227342 </v>
    <v>       2.59817492       8.65752788       4.00227405 </v>
    <v>      -0.02346033      -0.01741689       9.88536876 </v>
   </varray>
   <i name="volume">    775.29144609 </i>
   <varray name="rec_basis" >
    <v>       0.11047789      -0.03324919       0.00020361 </v>
    <v>       0.00013217       0.11537263       0.00020359 </v>
    <v>      -0.04478252      -0.03324920       0.10099474 </v>
   </varray>
  </crystal>
  <varray name="positions" >
   <v>       0.15994827       0.39893998       0.39893998 </v>
   <v>       0.15994827       0.39893998       0.89893998 </v>
   <v>       0.15994827       0.89893998       0.39893998 </v>
   <v>       0.15994827       0.89893998       0.89893998 </v>
   <v>       0.65994827       0.39893998       0.39893998 </v>
   <v>       0.65994827       0.39893998       0.89893998 </v>
   <v>       0.65994827       0.89893998       0.39893998 </v>
   <v>       0.65994827       0.89893998       0.89893998 </v>
   <v>       0.39893998       0.39893998       0.15994827 </v>
   <v>       0.39893998       0.39893998       0.65994827 </v>
   <v>       0.39893998       0.89893998       0.15994827 </v>
   <v>       0.39893998       0.89893998       0.65994827 </v>
   <v>       0.89893998       0.39893998       0.15994827 </v>
   <v>       0.89893998       0.39893998       0.65994827 </v>
   <v>       0.89893998       0.89893998       0.15994827 </v>
   <v>       0.89893998       0.89893998       0.65994827 </v>
   <v>       0.39893998       0.15994827       0.39893998 </v>
   <v>       0.39893998       0.15994827       0.89893998 </v>
   <v>       0.39893998       0.65994827       0.39893998 </v>
   <v>       0.39893998       0.65994827       0.89893998 </v>
   <v>       0.89893998       0.15994827       0.39893998 </v>
   <v>       0.89893998       0.15994827       0.89893998 </v>
   <v>       0.89893998       0.65994827       0.39893998 </v>
   <v>       0.89893998       0.65994827       0.89893998 </v>
   <v>       0.34005173       0.10106002       0.10106002 </v>
   <v>       0.34005173       0.10106002       0.60106002 </v>
   <v>       0.34005173       0.60106002       0.10106002 </v>
   <v>       0.34005173       0.60106002       0.60106002 </v>
   <v>       0.84005173       0.10106002       0.10106002 </v>
   <v>       0.84005173       0.10106002       0.60106002 </v>
   <v>       0.84005173       0.60106002       0.10106002 </v>
   <v>       0.84005173       0.60106002       0.60106002 </v>
   <v>       0.10106002       0.10106002       0.34005173 </v>
   <v>       0.10106002       0.10106002       0.84005173 </v>
   <v>       0.10106002       0.60106002       0.34005173 </v>
   <v>       0.10106002       0.60106002       0.84005173 </v>
   <v>       0.60106002       0.10106002       0.34005173 </v>
   <v>       0.60106002       0.10106002       0.84005173 </v>
   <v>       0.60106002       0.60106002       0.34005173 </v>
   <v>       0.60106002       0.60106002       0.84005173 </v>
   <v>       0.10106002       0.34005173       0.10106002 </v>
   <v>       0.10106002       0.34005173       0.60106002 </v>
   <v>       0.10106002       0.84005173       0.10106002 </v>
   <v>       0.10106002       0.84005173       0.60106002 </v>
   <v>       0.60106002       0.34005173       0.10106002 </v>
   <v>       0.60106002       0.34005173       0.60106002 </v>
   <v>       0.60106002       0.84005173       0.10106002 </v>
   <v>       0.60106002       0.84005173       0.60106002 </v>
   <v>       0.33418780      -0.00177830      -0.00177830 </v>
   <v>       0.33418780      -0.00177830       0.49822170 </v>
   <v>       0.33418780       0.49822170      -0.00177830 </v>
   <v>       0.33418780       0.49822170       0.49822170 </v>
   <v>       0.83418780      -0.00177830      -0.00177830 </v>
   <v>       0.83418780      -0.00177830       0.49822170 </v>
   <v>       0.83418780       0.49822170      -0.00177830 </v>
   <v>       0.83418780       0.49822170       0.49822170 </v>
   <v>      -0.00177830      -0.00177830       0.33418780 </v>
   <v>      -0.00177830      -0.00177830       0.83418780 </v>
   <v>      -0.00177830       0.49822170       0.33418780 </v>
   <v>      -0.00177830       0.49822170       0.83418780 </v>
   <v>       0.49822170      -0.00177830       0.33418780 </v>
   <v>       0.49822170      -0.00177830       0.83418780 </v>
   <v>       0.49822170       0.49822170       0.33418780 </v>
   <v>       0.49822170       0.49822170       0.83418780 </v>
   <v>      -0.00177830       0.33418780      -0.00177830 </v>
   <v>      -0.00177830       0.33418780       0.49822170 </v>
   <v>      -0.00177830       0.83418780      -0.00177830 </v>
   <v>      -0.00177830       0.83418780       0.49822170 </v>
   <v>       0.49822170       0.33418780      -0.00177830 </v>
   <v>       0.49822170       0.33418780       0.49822170 </v>
   <v>       0.49822170       0.83418780      -0.00177830 </v>
   <v>       0.49822170       0.83418780       0.49822170 </v>
   <v>       0.16581220       0.00177830       0.00177830 </v>
   <v>       0.16581220       0.00177830       0.50177830 </v>
   <v>       0.16581220       0.50177830       0.00177830 </v>
   <v>       0.16581220       0.50177830       0.50177830 </v>
   <v>       0.66581220       0.00177830       0.00177830 </v>
   <v>       0.66581220       0.00177830       0.50177830 </v>
   <v>       0.66581220       0.50177830       0.00177830 </v>
   <v>       0.66581220       0.50177830       0.50177830 </v>
   <v>       0.00177830       0.00177830       0.16581220 </v>
   <v>       0.00177830       0.00177830       0.66581220 </v>
   <v>       0.00177830       0.50177830       0.16581220 </v>
   <v>       0.00177830       0.50177830       0.66581220 </v>
   <v>       0.50177830       0.00177830       0.16581220 </v>
   <v>       0.50177830       0.00177830       0.66581220 </v>
   <v>       0.50177830       0.50177830       0.16581220 </v>
   <v>       0.50177830       0.50177830       0.66581220 </v>
   <v>       0.00177830       0.16581220       0.00177830 </v>
   <v>       0.00177830       0.16581220       0.50177830 </v>
   <v>       0.00177830       0.66581220       0.00177830 </v>
   <v>       0.00177830       0.66581220       0.50177830 </v>
   <v>       0.50177830       0.16581220       0.00177830 </v>
   <v>       0.50177830       0.16581220       0.50177830 </v>
   <v>       0.50177830       0.66581220       0.00177830 </v>
   <v>       0.50177830       0.66581220       0.50177830 </v>
   <v>       0.31189509       0.31189509       0.31189509 </v>
   <v>       0.31189509       0.31189509       0.81189509 </v>
   <v>       0.31189509       0.81189509       0.31189509 </v>
   <v>       0.31189509       0.81189509       0.81189509 </v>
   <v>       0.81189509       0.31189509       0.31189509 </v>
   <v>       0.81189509       0.31189509       0.81189509 </v>
   <v>       0.81189509       0.81189509       0.31189509 </v>
   <v>       0.81189509       0.81189509       0.81189509 </v>
   <v>       0.18810491       0.18810491       0.18810491 </v>
   <v>       0.18810491       0.18810491       0.68810491 </v>
   <v>       0.18810491       0.68810491       0.18810491 </v>
   <v>       0.18810491       0.68810491       0.68810491 </v>
   <v>       0.68810491       0.18810491       0.18810491 </v>
   <v>       0.68810491       0.18810491       0.68810491 </v>
   <v>       0.68810491       0.68810491       0.18810491 </v>
   <v>       0.68810491       0.68810491       0.68810491 </v>
  </varray>
 </structure>
</modeling>
