unknown system                          
            1
     9.065875    0.069806    4.142881
     2.689453    8.658050    4.142881
     0.094019    0.069806    9.967181
   B    C 
    96    16
unknown system                          
            1
     9.065875    0.069806    4.142881
     2.689453    8.658050    4.142881
     0.094019    0.069806    9.967181
   B    C 
    96    16
Direct configuration=     1
   0.16039500  0.40051500  0.40051500
   0.16039500  0.40051500  0.90051500
   0.16039500  0.90051500  0.40051500
   0.16039500  0.90051500  0.90051500
   0.66039500  0.40051500  0.40051500
   0.66039500  0.40051500  0.90051500
   0.66039500  0.90051500  0.40051500
   0.66039500  0.90051500  0.90051500
   0.40051500  0.40051500  0.16039500
   0.40051500  0.40051500  0.66039500
   0.40051500  0.90051500  0.16039500
   0.40051500  0.90051500  0.66039500
   0.90051500  0.40051500  0.16039500
   0.90051500  0.40051500  0.66039500
   0.90051500  0.90051500  0.16039500
   0.90051500  0.90051500  0.66039500
   0.40051500  0.16039500  0.40051500
   0.40051500  0.16039500  0.90051500
   0.40051500  0.66039500  0.40051500
   0.40051500  0.66039500  0.90051500
   0.90051500  0.16039500  0.40051500
   0.90051500  0.16039500  0.90051500
   0.90051500  0.66039500  0.40051500
   0.90051500  0.66039500  0.90051500
   0.33960500  0.09948500  0.09948500
   0.33960500  0.09948500  0.59948500
   0.33960500  0.59948500  0.09948500
   0.33960500  0.59948500  0.59948500
   0.83960500  0.09948500  0.09948500
   0.83960500  0.09948500  0.59948500
   0.83960500  0.59948500  0.09948500
   0.83960500  0.59948500  0.59948500
   0.09948500  0.09948500  0.33960500
   0.09948500  0.09948500  0.83960500
   0.09948500  0.59948500  0.33960500
   0.09948500  0.59948500  0.83960500
   0.59948500  0.09948500  0.33960500
   0.59948500  0.09948500  0.83960500
   0.59948500  0.59948500  0.33960500
   0.59948500  0.59948500  0.83960500
   0.09948500  0.33960500  0.09948500
   0.09948500  0.33960500  0.59948500
   0.09948500  0.83960500  0.09948500
   0.09948500  0.83960500  0.59948500
   0.59948500  0.33960500  0.09948500
   0.59948500  0.33960500  0.59948500
   0.59948500  0.83960500  0.09948500
   0.59948500  0.83960500  0.59948500
   0.33229300  0.00011500  0.00011500
   0.33229300  0.00011500  0.50011500
   0.33229300  0.50011500  0.00011500
   0.33229300  0.50011500  0.50011500
   0.83229300  0.00011500  0.00011500
   0.83229300  0.00011500  0.50011500
   0.83229300  0.50011500  0.00011500
   0.83229300  0.50011500  0.50011500
   0.00011500  0.00011500  0.33229300
   0.00011500  0.00011500  0.83229300
   0.00011500  0.50011500  0.33229300
   0.00011500  0.50011500  0.83229300
   0.50011500  0.00011500  0.33229300
   0.50011500  0.00011500  0.83229300
   0.50011500  0.50011500  0.33229300
   0.50011500  0.50011500  0.83229300
   0.00011500  0.33229300  0.00011500
   0.00011500  0.33229300  0.50011500
   0.00011500  0.83229300  0.00011500
   0.00011500  0.83229300  0.50011500
   0.50011500  0.33229300  0.00011500
   0.50011500  0.33229300  0.50011500
   0.50011500  0.83229300  0.00011500
   0.50011500  0.83229300  0.50011500
   0.16770700  0.99988500  0.99988500
   0.16770700  0.99988500  0.49988500
   0.16770700  0.49988500  0.99988500
   0.16770700  0.49988500  0.49988500
   0.66770700  0.99988500  0.99988500
   0.66770700  0.99988500  0.49988500
   0.66770700  0.49988500  0.99988500
   0.66770700  0.49988500  0.49988500
   0.99988500  0.99988500  0.16770700
   0.99988500  0.99988500  0.66770700
   0.99988500  0.49988500  0.16770700
   0.99988500  0.49988500  0.66770700
   0.49988500  0.99988500  0.16770700
   0.49988500  0.99988500  0.66770700
   0.49988500  0.49988500  0.16770700
   0.49988500  0.49988500  0.66770700
   0.99988500  0.16770700  0.99988500
   0.99988500  0.16770700  0.49988500
   0.99988500  0.66770700  0.99988500
   0.99988500  0.66770700  0.49988500
   0.49988500  0.16770700  0.99988500
   0.49988500  0.16770700  0.49988500
   0.49988500  0.66770700  0.99988500
   0.49988500  0.66770700  0.49988500
   0.31539700  0.31539700  0.31539700
   0.31539700  0.31539700  0.81539700
   0.31539700  0.81539700  0.31539700
   0.31539700  0.81539700  0.81539700
   0.81539700  0.31539700  0.31539700
   0.81539700  0.31539700  0.81539700
   0.81539700  0.81539700  0.31539700
   0.81539700  0.81539700  0.81539700
   0.18460300  0.18460300  0.18460300
   0.18460300  0.18460300  0.68460300
   0.18460300  0.68460300  0.18460300
   0.18460300  0.68460300  0.68460300
   0.68460300  0.18460300  0.18460300
   0.68460300  0.18460300  0.68460300
   0.68460300  0.68460300  0.18460300
   0.68460300  0.68460300  0.68460300
unknown system                          
            1
     9.055283    0.036170    4.088563
     2.654191    8.657641    4.088563
     0.048716    0.036170    9.935396
   B    C 
    96    16
Direct configuration=     2
   0.15953438  0.40003898  0.40003898
   0.15953438  0.40003898  0.90003898
   0.15953438  0.90003898  0.40003898
   0.15953438  0.90003898  0.90003898
   0.65953438  0.40003898  0.40003898
   0.65953438  0.40003898  0.90003898
   0.65953438  0.90003898  0.40003898
   0.65953438  0.90003898  0.90003898
   0.40003898  0.40003898  0.15953438
   0.40003898  0.40003898  0.65953438
   0.40003898  0.90003898  0.15953438
   0.40003898  0.90003898  0.65953438
   0.90003898  0.40003898  0.15953438
   0.90003898  0.40003898  0.65953438
   0.90003898  0.90003898  0.15953438
   0.90003898  0.90003898  0.65953438
   0.40003898  0.15953438  0.40003898
   0.40003898  0.15953438  0.90003898
   0.40003898  0.65953438  0.40003898
   0.40003898  0.65953438  0.90003898
   0.90003898  0.15953438  0.40003898
   0.90003898  0.15953438  0.90003898
   0.90003898  0.65953438  0.40003898
   0.90003898  0.65953438  0.90003898
   0.34046562  0.09996102  0.09996102
   0.34046562  0.09996102  0.59996102
   0.34046562  0.59996102  0.09996102
   0.34046562  0.59996102  0.59996102
   0.84046562  0.09996102  0.09996102
   0.84046562  0.09996102  0.59996102
   0.84046562  0.59996102  0.09996102
   0.84046562  0.59996102  0.59996102
   0.09996102  0.09996102  0.34046562
   0.09996102  0.09996102  0.84046562
   0.09996102  0.59996102  0.34046562
   0.09996102  0.59996102  0.84046562
   0.59996102  0.09996102  0.34046562
   0.59996102  0.09996102  0.84046562
   0.59996102  0.59996102  0.34046562
   0.59996102  0.59996102  0.84046562
   0.09996102  0.34046562  0.09996102
   0.09996102  0.34046562  0.59996102
   0.09996102  0.84046562  0.09996102
   0.09996102  0.84046562  0.59996102
   0.59996102  0.34046562  0.09996102
   0.59996102  0.34046562  0.59996102
   0.59996102  0.84046562  0.09996102
   0.59996102  0.84046562  0.59996102
   0.33139439 -0.00038770 -0.00038770
   0.33139439 -0.00038770  0.49961230
   0.33139439  0.49961230 -0.00038770
   0.33139439  0.49961230  0.49961230
   0.83139439 -0.00038770 -0.00038770
   0.83139439 -0.00038770  0.49961230
   0.83139439  0.49961230 -0.00038770
   0.83139439  0.49961230  0.49961230
  -0.00038770 -0.00038770  0.33139439
  -0.00038770 -0.00038770  0.83139439
  -0.00038770  0.49961230  0.33139439
  -0.00038770  0.49961230  0.83139439
   0.49961230 -0.00038770  0.33139439
   0.49961230 -0.00038770  0.83139439
   0.49961230  0.49961230  0.33139439
   0.49961230  0.49961230  0.83139439
  -0.00038770  0.33139439 -0.00038770
  -0.00038770  0.33139439  0.49961230
  -0.00038770  0.83139439 -0.00038770
  -0.00038770  0.83139439  0.49961230
   0.49961230  0.33139439 -0.00038770
   0.49961230  0.33139439  0.49961230
   0.49961230  0.83139439 -0.00038770
   0.49961230  0.83139439  0.49961230
   0.16860561  0.00038770  0.00038770
   0.16860561  0.00038770  0.50038770
   0.16860561  0.50038770  0.00038770
   0.16860561  0.50038770  0.50038770
   0.66860561  0.00038770  0.00038770
   0.66860561  0.00038770  0.50038770
   0.66860561  0.50038770  0.00038770
   0.66860561  0.50038770  0.50038770
   0.00038770  0.00038770  0.16860561
   0.00038770  0.00038770  0.66860561
   0.00038770  0.50038770  0.16860561
   0.00038770  0.50038770  0.66860561
   0.50038770  0.00038770  0.16860561
   0.50038770  0.00038770  0.66860561
   0.50038770  0.50038770  0.16860561
   0.50038770  0.50038770  0.66860561
   0.00038770  0.16860561  0.00038770
   0.00038770  0.16860561  0.50038770
   0.00038770  0.66860561  0.00038770
   0.00038770  0.66860561  0.50038770
   0.50038770  0.16860561  0.00038770
   0.50038770  0.16860561  0.50038770
   0.50038770  0.66860561  0.00038770
   0.50038770  0.66860561  0.50038770
   0.31442691  0.31442691  0.31442691
   0.31442691  0.31442691  0.81442691
   0.31442691  0.81442691  0.31442691
   0.31442691  0.81442691  0.81442691
   0.81442691  0.31442691  0.31442691
   0.81442691  0.31442691  0.81442691
   0.81442691  0.81442691  0.31442691
   0.81442691  0.81442691  0.81442691
   0.18557309  0.18557309  0.18557309
   0.18557309  0.18557309  0.68557309
   0.18557309  0.68557309  0.18557309
   0.18557309  0.68557309  0.68557309
   0.68557309  0.18557309  0.18557309
   0.68557309  0.18557309  0.68557309
   0.68557309  0.68557309  0.18557309
   0.68557309  0.68557309  0.68557309
unknown system                          
            1
     9.056843    0.041180    4.096645
     2.659438    8.657686    4.096645
     0.055463    0.041180    9.940111
   B    C 
    96    16
Direct configuration=     3
   0.15966311  0.40011065  0.40011065
   0.15966311  0.40011065  0.90011065
   0.15966311  0.90011065  0.40011065
   0.15966311  0.90011065  0.90011065
   0.65966311  0.40011065  0.40011065
   0.65966311  0.40011065  0.90011065
   0.65966311  0.90011065  0.40011065
   0.65966311  0.90011065  0.90011065
   0.40011065  0.40011065  0.15966311
   0.40011065  0.40011065  0.65966311
   0.40011065  0.90011065  0.15966311
   0.40011065  0.90011065  0.65966311
   0.90011065  0.40011065  0.15966311
   0.90011065  0.40011065  0.65966311
   0.90011065  0.90011065  0.15966311
   0.90011065  0.90011065  0.65966311
   0.40011065  0.15966311  0.40011065
   0.40011065  0.15966311  0.90011065
   0.40011065  0.65966311  0.40011065
   0.40011065  0.65966311  0.90011065
   0.90011065  0.15966311  0.40011065
   0.90011065  0.15966311  0.90011065
   0.90011065  0.65966311  0.40011065
   0.90011065  0.65966311  0.90011065
   0.34033689  0.09988935  0.09988935
   0.34033689  0.09988935  0.59988935
   0.34033689  0.59988935  0.09988935
   0.34033689  0.59988935  0.59988935
   0.84033689  0.09988935  0.09988935
   0.84033689  0.09988935  0.59988935
   0.84033689  0.59988935  0.09988935
   0.84033689  0.59988935  0.59988935
   0.09988935  0.09988935  0.34033689
   0.09988935  0.09988935  0.84033689
   0.09988935  0.59988935  0.34033689
   0.09988935  0.59988935  0.84033689
   0.59988935  0.09988935  0.34033689
   0.59988935  0.09988935  0.84033689
   0.59988935  0.59988935  0.34033689
   0.59988935  0.59988935  0.84033689
   0.09988935  0.34033689  0.09988935
   0.09988935  0.34033689  0.59988935
   0.09988935  0.84033689  0.09988935
   0.09988935  0.84033689  0.59988935
   0.59988935  0.34033689  0.09988935
   0.59988935  0.34033689  0.59988935
   0.59988935  0.84033689  0.09988935
   0.59988935  0.84033689  0.59988935
   0.33152880 -0.00031202 -0.00031202
   0.33152880 -0.00031202  0.49968798
   0.33152880  0.49968798 -0.00031202
   0.33152880  0.49968798  0.49968798
   0.83152880 -0.00031202 -0.00031202
   0.83152880 -0.00031202  0.49968798
   0.83152880  0.49968798 -0.00031202
   0.83152880  0.49968798  0.49968798
  -0.00031202 -0.00031202  0.33152880
  -0.00031202 -0.00031202  0.83152880
  -0.00031202  0.49968798  0.33152880
  -0.00031202  0.49968798  0.83152880
   0.49968798 -0.00031202  0.33152880
   0.49968798 -0.00031202  0.83152880
   0.49968798  0.49968798  0.33152880
   0.49968798  0.49968798  0.83152880
  -0.00031202  0.33152880 -0.00031202
  -0.00031202  0.33152880  0.49968798
  -0.00031202  0.83152880 -0.00031202
  -0.00031202  0.83152880  0.49968798
   0.49968798  0.33152880 -0.00031202
   0.49968798  0.33152880  0.49968798
   0.49968798  0.83152880 -0.00031202
   0.49968798  0.83152880  0.49968798
   0.16847120  0.00031202  0.00031202
   0.16847120  0.00031202  0.50031202
   0.16847120  0.50031202  0.00031202
   0.16847120  0.50031202  0.50031202
   0.66847120  0.00031202  0.00031202
   0.66847120  0.00031202  0.50031202
   0.66847120  0.50031202  0.00031202
   0.66847120  0.50031202  0.50031202
   0.00031202  0.00031202  0.16847120
   0.00031202  0.00031202  0.66847120
   0.00031202  0.50031202  0.16847120
   0.00031202  0.50031202  0.66847120
   0.50031202  0.00031202  0.16847120
   0.50031202  0.00031202  0.66847120
   0.50031202  0.50031202  0.16847120
   0.50031202  0.50031202  0.66847120
   0.00031202  0.16847120  0.00031202
   0.00031202  0.16847120  0.50031202
   0.00031202  0.66847120  0.00031202
   0.00031202  0.66847120  0.50031202
   0.50031202  0.16847120  0.00031202
   0.50031202  0.16847120  0.50031202
   0.50031202  0.66847120  0.00031202
   0.50031202  0.66847120  0.50031202
   0.31457251  0.31457251  0.31457251
   0.31457251  0.31457251  0.81457251
   0.31457251  0.81457251  0.31457251
   0.31457251  0.81457251  0.81457251
   0.81457251  0.31457251  0.31457251
   0.81457251  0.31457251  0.81457251
   0.81457251  0.81457251  0.31457251
   0.81457251  0.81457251  0.81457251
   0.18542749  0.18542749  0.18542749
   0.18542749  0.18542749  0.68542749
   0.18542749  0.68542749  0.18542749
   0.18542749  0.68542749  0.68542749
   0.68542749  0.18542749  0.18542749
   0.68542749  0.18542749  0.68542749
   0.68542749  0.68542749  0.18542749
   0.68542749  0.68542749  0.68542749
unknown system                          
            1
     9.048765    0.015034    4.054492
     2.632073    8.657517    4.054492
     0.020248    0.015034    9.915575
   B    C 
    96    16
Direct configuration=     4
   0.15909841  0.39958496  0.39958496
   0.15909841  0.39958496  0.89958496
   0.15909841  0.89958496  0.39958496
   0.15909841  0.89958496  0.89958496
   0.65909841  0.39958496  0.39958496
   0.65909841  0.39958496  0.89958496
   0.65909841  0.89958496  0.39958496
   0.65909841  0.89958496  0.89958496
   0.39958496  0.39958496  0.15909841
   0.39958496  0.39958496  0.65909841
   0.39958496  0.89958496  0.15909841
   0.39958496  0.89958496  0.65909841
   0.89958496  0.39958496  0.15909841
   0.89958496  0.39958496  0.65909841
   0.89958496  0.89958496  0.15909841
   0.89958496  0.89958496  0.65909841
   0.39958496  0.15909841  0.39958496
   0.39958496  0.15909841  0.89958496
   0.39958496  0.65909841  0.39958496
   0.39958496  0.65909841  0.89958496
   0.89958496  0.15909841  0.39958496
   0.89958496  0.15909841  0.89958496
   0.89958496  0.65909841  0.39958496
   0.89958496  0.65909841  0.89958496
   0.34090159  0.10041504  0.10041504
   0.34090159  0.10041504  0.60041504
   0.34090159  0.60041504  0.10041504
   0.34090159  0.60041504  0.60041504
   0.84090159  0.10041504  0.10041504
   0.84090159  0.10041504  0.60041504
   0.84090159  0.60041504  0.10041504
   0.84090159  0.60041504  0.60041504
   0.10041504  0.10041504  0.34090159
   0.10041504  0.10041504  0.84090159
   0.10041504  0.60041504  0.34090159
   0.10041504  0.60041504  0.84090159
   0.60041504  0.10041504  0.34090159
   0.60041504  0.10041504  0.84090159
   0.60041504  0.60041504  0.34090159
   0.60041504  0.60041504  0.84090159
   0.10041504  0.34090159  0.10041504
   0.10041504  0.34090159  0.60041504
   0.10041504  0.84090159  0.10041504
   0.10041504  0.84090159  0.60041504
   0.60041504  0.34090159  0.10041504
   0.60041504  0.34090159  0.60041504
   0.60041504  0.84090159  0.10041504
   0.60041504  0.84090159  0.60041504
   0.33302136 -0.00085355 -0.00085355
   0.33302136 -0.00085355  0.49914645
   0.33302136  0.49914645 -0.00085355
   0.33302136  0.49914645  0.49914645
   0.83302136 -0.00085355 -0.00085355
   0.83302136 -0.00085355  0.49914645
   0.83302136  0.49914645 -0.00085355
   0.83302136  0.49914645  0.49914645
  -0.00085355 -0.00085355  0.33302136
  -0.00085355 -0.00085355  0.83302136
  -0.00085355  0.49914645  0.33302136
  -0.00085355  0.49914645  0.83302136
   0.49914645 -0.00085355  0.33302136
   0.49914645 -0.00085355  0.83302136
   0.49914645  0.49914645  0.33302136
   0.49914645  0.49914645  0.83302136
  -0.00085355  0.33302136 -0.00085355
  -0.00085355  0.33302136  0.49914645
  -0.00085355  0.83302136 -0.00085355
  -0.00085355  0.83302136  0.49914645
   0.49914645  0.33302136 -0.00085355
   0.49914645  0.33302136  0.49914645
   0.49914645  0.83302136 -0.00085355
   0.49914645  0.83302136  0.49914645
   0.16697864  0.00085355  0.00085355
   0.16697864  0.00085355  0.50085355
   0.16697864  0.50085355  0.00085355
   0.16697864  0.50085355  0.50085355
   0.66697864  0.00085355  0.00085355
   0.66697864  0.00085355  0.50085355
   0.66697864  0.50085355  0.00085355
   0.66697864  0.50085355  0.50085355
   0.00085355  0.00085355  0.16697864
   0.00085355  0.00085355  0.66697864
   0.00085355  0.50085355  0.16697864
   0.00085355  0.50085355  0.66697864
   0.50085355  0.00085355  0.16697864
   0.50085355  0.00085355  0.66697864
   0.50085355  0.50085355  0.16697864
   0.50085355  0.50085355  0.66697864
   0.00085355  0.16697864  0.00085355
   0.00085355  0.16697864  0.50085355
   0.00085355  0.66697864  0.00085355
   0.00085355  0.66697864  0.50085355
   0.50085355  0.16697864  0.00085355
   0.50085355  0.16697864  0.50085355
   0.50085355  0.66697864  0.00085355
   0.50085355  0.66697864  0.50085355
   0.31332738  0.31332738  0.31332738
   0.31332738  0.31332738  0.81332738
   0.31332738  0.81332738  0.31332738
   0.31332738  0.81332738  0.81332738
   0.81332738  0.31332738  0.31332738
   0.81332738  0.31332738  0.81332738
   0.81332738  0.81332738  0.31332738
   0.81332738  0.81332738  0.81332738
   0.18667262  0.18667262  0.18667262
   0.18667262  0.18667262  0.68667262
   0.18667262  0.68667262  0.18667262
   0.18667262  0.68667262  0.68667262
   0.68667262  0.18667262  0.18667262
   0.68667262  0.18667262  0.68667262
   0.68667262  0.68667262  0.18667262
   0.68667262  0.68667262  0.68667262
unknown system                          
            1
     9.048848    0.015306    4.054930
     2.632357    8.657518    4.054930
     0.020614    0.015306    9.915829
   B    C 
    96    16
Direct configuration=     5
   0.15910431  0.39959045  0.39959045
   0.15910431  0.39959045  0.89959045
   0.15910431  0.89959045  0.39959045
   0.15910431  0.89959045  0.89959045
   0.65910431  0.39959045  0.39959045
   0.65910431  0.39959045  0.89959045
   0.65910431  0.89959045  0.39959045
   0.65910431  0.89959045  0.89959045
   0.39959045  0.39959045  0.15910431
   0.39959045  0.39959045  0.65910431
   0.39959045  0.89959045  0.15910431
   0.39959045  0.89959045  0.65910431
   0.89959045  0.39959045  0.15910431
   0.89959045  0.39959045  0.65910431
   0.89959045  0.89959045  0.15910431
   0.89959045  0.89959045  0.65910431
   0.39959045  0.15910431  0.39959045
   0.39959045  0.15910431  0.89959045
   0.39959045  0.65910431  0.39959045
   0.39959045  0.65910431  0.89959045
   0.89959045  0.15910431  0.39959045
   0.89959045  0.15910431  0.89959045
   0.89959045  0.65910431  0.39959045
   0.89959045  0.65910431  0.89959045
   0.34089569  0.10040955  0.10040955
   0.34089569  0.10040955  0.60040955
   0.34089569  0.60040955  0.10040955
   0.34089569  0.60040955  0.60040955
   0.84089569  0.10040955  0.10040955
   0.84089569  0.10040955  0.60040955
   0.84089569  0.60040955  0.10040955
   0.84089569  0.60040955  0.60040955
   0.10040955  0.10040955  0.34089569
   0.10040955  0.10040955  0.84089569
   0.10040955  0.60040955  0.34089569
   0.10040955  0.60040955  0.84089569
   0.60040955  0.10040955  0.34089569
   0.60040955  0.10040955  0.84089569
   0.60040955  0.60040955  0.34089569
   0.60040955  0.60040955  0.84089569
   0.10040955  0.34089569  0.10040955
   0.10040955  0.34089569  0.60040955
   0.10040955  0.84089569  0.10040955
   0.10040955  0.84089569  0.60040955
   0.60040955  0.34089569  0.10040955
   0.60040955  0.34089569  0.60040955
   0.60040955  0.84089569  0.10040955
   0.60040955  0.84089569  0.60040955
   0.33300588 -0.00084795 -0.00084795
   0.33300588 -0.00084795  0.49915205
   0.33300588  0.49915205 -0.00084795
   0.33300588  0.49915205  0.49915205
   0.83300588 -0.00084795 -0.00084795
   0.83300588 -0.00084795  0.49915205
   0.83300588  0.49915205 -0.00084795
   0.83300588  0.49915205  0.49915205
  -0.00084795 -0.00084795  0.33300588
  -0.00084795 -0.00084795  0.83300588
  -0.00084795  0.49915205  0.33300588
  -0.00084795  0.49915205  0.83300588
   0.49915205 -0.00084795  0.33300588
   0.49915205 -0.00084795  0.83300588
   0.49915205  0.49915205  0.33300588
   0.49915205  0.49915205  0.83300588
  -0.00084795  0.33300588 -0.00084795
  -0.00084795  0.33300588  0.49915205
  -0.00084795  0.83300588 -0.00084795
  -0.00084795  0.83300588  0.49915205
   0.49915205  0.33300588 -0.00084795
   0.49915205  0.33300588  0.49915205
   0.49915205  0.83300588 -0.00084795
   0.49915205  0.83300588  0.49915205
   0.16699412  0.00084795  0.00084795
   0.16699412  0.00084795  0.50084795
   0.16699412  0.50084795  0.00084795
   0.16699412  0.50084795  0.50084795
   0.66699412  0.00084795  0.00084795
   0.66699412  0.00084795  0.50084795
   0.66699412  0.50084795  0.00084795
   0.66699412  0.50084795  0.50084795
   0.00084795  0.00084795  0.16699412
   0.00084795  0.00084795  0.66699412
   0.00084795  0.50084795  0.16699412
   0.00084795  0.50084795  0.66699412
   0.50084795  0.00084795  0.16699412
   0.50084795  0.00084795  0.66699412
   0.50084795  0.50084795  0.16699412
   0.50084795  0.50084795  0.66699412
   0.00084795  0.16699412  0.00084795
   0.00084795  0.16699412  0.50084795
   0.00084795  0.66699412  0.00084795
   0.00084795  0.66699412  0.50084795
   0.50084795  0.16699412  0.00084795
   0.50084795  0.16699412  0.50084795
   0.50084795  0.66699412  0.00084795
   0.50084795  0.66699412  0.50084795
   0.31334040  0.31334040  0.31334040
   0.31334040  0.31334040  0.81334040
   0.31334040  0.81334040  0.31334040
   0.31334040  0.81334040  0.81334040
   0.81334040  0.31334040  0.31334040
   0.81334040  0.31334040  0.81334040
   0.81334040  0.81334040  0.31334040
   0.81334040  0.81334040  0.81334040
   0.18665960  0.18665960  0.18665960
   0.18665960  0.18665960  0.68665960
   0.18665960  0.68665960  0.18665960
   0.18665960  0.68665960  0.68665960
   0.68665960  0.18665960  0.18665960
   0.68665960  0.18665960  0.68665960
   0.68665960  0.68665960  0.18665960
   0.68665960  0.68665960  0.68665960
unknown system                          
            1
     9.045467    0.004205    4.037055
     2.620754    8.657493    4.037055
     0.005663    0.004206    9.905465
   B    C 
    96    16
Direct configuration=     6
   0.15999545  0.39910871  0.39910871
   0.15999545  0.39910871  0.89910871
   0.15999545  0.89910871  0.39910871
   0.15999545  0.89910871  0.89910871
   0.65999545  0.39910871  0.39910871
   0.65999545  0.39910871  0.89910871
   0.65999545  0.89910871  0.39910871
   0.65999545  0.89910871  0.89910871
   0.39910871  0.39910871  0.15999545
   0.39910871  0.39910871  0.65999545
   0.39910871  0.89910871  0.15999545
   0.39910871  0.89910871  0.65999545
   0.89910871  0.39910871  0.15999545
   0.89910871  0.39910871  0.65999545
   0.89910871  0.89910871  0.15999545
   0.89910871  0.89910871  0.65999545
   0.39910871  0.15999545  0.39910871
   0.39910871  0.15999545  0.89910871
   0.39910871  0.65999545  0.39910871
   0.39910871  0.65999545  0.89910871
   0.89910871  0.15999545  0.39910871
   0.89910871  0.15999545  0.89910871
   0.89910871  0.65999545  0.39910871
   0.89910871  0.65999545  0.89910871
   0.34000455  0.10089129  0.10089129
   0.34000455  0.10089129  0.60089129
   0.34000455  0.60089129  0.10089129
   0.34000455  0.60089129  0.60089129
   0.84000455  0.10089129  0.10089129
   0.84000455  0.10089129  0.60089129
   0.84000455  0.60089129  0.10089129
   0.84000455  0.60089129  0.60089129
   0.10089129  0.10089129  0.34000455
   0.10089129  0.10089129  0.84000455
   0.10089129  0.60089129  0.34000455
   0.10089129  0.60089129  0.84000455
   0.60089129  0.10089129  0.34000455
   0.60089129  0.10089129  0.84000455
   0.60089129  0.60089129  0.34000455
   0.60089129  0.60089129  0.84000455
   0.10089129  0.34000455  0.10089129
   0.10089129  0.34000455  0.60089129
   0.10089129  0.84000455  0.10089129
   0.10089129  0.84000455  0.60089129
   0.60089129  0.34000455  0.10089129
   0.60089129  0.34000455  0.60089129
   0.60089129  0.84000455  0.10089129
   0.60089129  0.84000455  0.60089129
   0.33315247 -0.00104925 -0.00104925
   0.33315247 -0.00104925  0.49895075
   0.33315247  0.49895075 -0.00104925
   0.33315247  0.49895075  0.49895075
   0.83315247 -0.00104925 -0.00104925
   0.83315247 -0.00104925  0.49895075
   0.83315247  0.49895075 -0.00104925
   0.83315247  0.49895075  0.49895075
  -0.00104925 -0.00104925  0.33315247
  -0.00104925 -0.00104925  0.83315247
  -0.00104925  0.49895075  0.33315247
  -0.00104925  0.49895075  0.83315247
   0.49895075 -0.00104925  0.33315247
   0.49895075 -0.00104925  0.83315247
   0.49895075  0.49895075  0.33315247
   0.49895075  0.49895075  0.83315247
  -0.00104925  0.33315247 -0.00104925
  -0.00104925  0.33315247  0.49895075
  -0.00104925  0.83315247 -0.00104925
  -0.00104925  0.83315247  0.49895075
   0.49895075  0.33315247 -0.00104925
   0.49895075  0.33315247  0.49895075
   0.49895075  0.83315247 -0.00104925
   0.49895075  0.83315247  0.49895075
   0.16684753  0.00104925  0.00104925
   0.16684753  0.00104925  0.50104925
   0.16684753  0.50104925  0.00104925
   0.16684753  0.50104925  0.50104925
   0.66684753  0.00104925  0.00104925
   0.66684753  0.00104925  0.50104925
   0.66684753  0.50104925  0.00104925
   0.66684753  0.50104925  0.50104925
   0.00104925  0.00104925  0.16684753
   0.00104925  0.00104925  0.66684753
   0.00104925  0.50104925  0.16684753
   0.00104925  0.50104925  0.66684753
   0.50104925  0.00104925  0.16684753
   0.50104925  0.00104925  0.66684753
   0.50104925  0.50104925  0.16684753
   0.50104925  0.50104925  0.66684753
   0.00104925  0.16684753  0.00104925
   0.00104925  0.16684753  0.50104925
   0.00104925  0.66684753  0.00104925
   0.00104925  0.66684753  0.50104925
   0.50104925  0.16684753  0.00104925
   0.50104925  0.16684753  0.50104925
   0.50104925  0.66684753  0.00104925
   0.50104925  0.66684753  0.50104925
   0.31249721  0.31249721  0.31249721
   0.31249721  0.31249721  0.81249721
   0.31249721  0.81249721  0.31249721
   0.31249721  0.81249721  0.81249721
   0.81249721  0.31249721  0.31249721
   0.81249721  0.31249721  0.81249721
   0.81249721  0.81249721  0.31249721
   0.81249721  0.81249721  0.81249721
   0.18750279  0.18750279  0.18750279
   0.18750279  0.18750279  0.68750279
   0.18750279  0.68750279  0.18750279
   0.18750279  0.68750279  0.68750279
   0.68750279  0.18750279  0.18750279
   0.68750279  0.18750279  0.68750279
   0.68750279  0.68750279  0.18750279
   0.68750279  0.68750279  0.68750279
unknown system                          
            1
     9.045281    0.003592    4.036068
     2.620113    8.657492    4.036068
     0.004837    0.003592    9.904893
   B    C 
    96    16
Direct configuration=     7
   0.16004461  0.39908212  0.39908212
   0.16004461  0.39908212  0.89908212
   0.16004461  0.89908212  0.39908212
   0.16004461  0.89908212  0.89908212
   0.66004461  0.39908212  0.39908212
   0.66004461  0.39908212  0.89908212
   0.66004461  0.89908212  0.39908212
   0.66004461  0.89908212  0.89908212
   0.39908212  0.39908212  0.16004461
   0.39908212  0.39908212  0.66004461
   0.39908212  0.89908212  0.16004461
   0.39908212  0.89908212  0.66004461
   0.89908212  0.39908212  0.16004461
   0.89908212  0.39908212  0.66004461
   0.89908212  0.89908212  0.16004461
   0.89908212  0.89908212  0.66004461
   0.39908212  0.16004461  0.39908212
   0.39908212  0.16004461  0.89908212
   0.39908212  0.66004461  0.39908212
   0.39908212  0.66004461  0.89908212
   0.89908212  0.16004461  0.39908212
   0.89908212  0.16004461  0.89908212
   0.89908212  0.66004461  0.39908212
   0.89908212  0.66004461  0.89908212
   0.33995539  0.10091788  0.10091788
   0.33995539  0.10091788  0.60091788
   0.33995539  0.60091788  0.10091788
   0.33995539  0.60091788  0.60091788
   0.83995539  0.10091788  0.10091788
   0.83995539  0.10091788  0.60091788
   0.83995539  0.60091788  0.10091788
   0.83995539  0.60091788  0.60091788
   0.10091788  0.10091788  0.33995539
   0.10091788  0.10091788  0.83995539
   0.10091788  0.60091788  0.33995539
   0.10091788  0.60091788  0.83995539
   0.60091788  0.10091788  0.33995539
   0.60091788  0.10091788  0.83995539
   0.60091788  0.60091788  0.33995539
   0.60091788  0.60091788  0.83995539
   0.10091788  0.33995539  0.10091788
   0.10091788  0.33995539  0.60091788
   0.10091788  0.83995539  0.10091788
   0.10091788  0.83995539  0.60091788
   0.60091788  0.33995539  0.10091788
   0.60091788  0.33995539  0.60091788
   0.60091788  0.83995539  0.10091788
   0.60091788  0.83995539  0.60091788
   0.33316054 -0.00106038 -0.00106038
   0.33316054 -0.00106038  0.49893962
   0.33316054  0.49893962 -0.00106038
   0.33316054  0.49893962  0.49893962
   0.83316054 -0.00106038 -0.00106038
   0.83316054 -0.00106038  0.49893962
   0.83316054  0.49893962 -0.00106038
   0.83316054  0.49893962  0.49893962
  -0.00106038 -0.00106038  0.33316054
  -0.00106038 -0.00106038  0.83316054
  -0.00106038  0.49893962  0.33316054
  -0.00106038  0.49893962  0.83316054
   0.49893962 -0.00106038  0.33316054
   0.49893962 -0.00106038  0.83316054
   0.49893962  0.49893962  0.33316054
   0.49893962  0.49893962  0.83316054
  -0.00106038  0.33316054 -0.00106038
  -0.00106038  0.33316054  0.49893962
  -0.00106038  0.83316054 -0.00106038
  -0.00106038  0.83316054  0.49893962
   0.49893962  0.33316054 -0.00106038
   0.49893962  0.33316054  0.49893962
   0.49893962  0.83316054 -0.00106038