 120 120   0   0
  0.7279435E+01  0.1014539E-08  0.1040844E-08  0.1040844E-08  0.5000000E-15
    2325.000000000000     
  CAR 
 unknown system                          
     14.32042968    -12.97398122  301      6.89670202      1.00000000
    -12.974  0.0000E+00  0.0000E+00
    -12.883  0.0000E+00  0.0000E+00
    -12.792  0.0000E+00  0.0000E+00
    -12.701  0.0000E+00  0.0000E+00
    -12.610  0.0000E+00  0.0000E+00
    -12.519  0.0000E+00  0.0000E+00
    -12.428  0.0000E+00  0.0000E+00
    -12.337  0.0000E+00  0.0000E+00
    -12.246  0.0000E+00  0.0000E+00
    -12.155  0.0000E+00  0.0000E+00
    -12.064  0.0000E+00  0.0000E+00
    -11.973  0.0000E+00  0.0000E+00
    -11.882  0.0000E+00  0.0000E+00
    -11.791  0.0000E+00  0.0000E+00
    -11.700  0.0000E+00  0.0000E+00
    -11.609  0.0000E+00  0.0000E+00
    -11.518  0.0000E+00  0.0000E+00
    -11.427  0.0000E+00  0.0000E+00
    -11.336  0.0000E+00  0.0000E+00
    -11.245  0.0000E+00  0.0000E+00
    -11.154  0.0000E+00  0.0000E+00
    -11.063  0.0000E+00  0.0000E+00
    -10.972  0.7343E+01  0.1864E+00
    -10.881  0.1377E+02  0.1105E+01
    -10.790  0.6952E+01  0.1798E+01
    -10.699  0.6322E+01  0.2258E+01
    -10.608  0.1132E+02  0.3009E+01
    -10.517  0.1225E+02  0.3929E+01
    -10.427  0.1005E+02  0.4804E+01
    -10.336  0.1170E+02  0.5619E+01
    -10.245  0.1204E+02  0.6588E+01
    -10.154  0.1192E+02  0.7587E+01
    -10.063  0.1374E+02  0.8709E+01
     -9.972  0.1117E+02  0.9611E+01
     -9.881  0.1068E+02  0.1051E+02
     -9.790  0.1018E+02  0.1141E+02
     -9.699  0.9324E+01  0.1225E+02
     -9.608  0.1038E+02  0.1305E+02
     -9.517  0.8996E+01  0.1391E+02
     -9.426  0.6010E+01  0.1450E+02
     -9.335  0.5430E+01  0.1499E+02
     -9.244  0.4726E+01  0.1539E+02
     -9.153  0.5016E+01  0.1581E+02
     -9.062  0.8011E+01  0.1640E+02
     -8.971  0.9219E+01  0.1718E+02
     -8.880  0.1104E+02  0.1808E+02
     -8.789  0.1316E+02  0.1915E+02
     -8.698  0.1514E+02  0.2044E+02
     -8.607  0.1595E+02  0.2174E+02
     -8.516  0.1714E+02  0.2313E+02
     -8.425  0.1655E+02  0.2457E+02
     -8.334  0.1656E+02  0.2596E+02
     -8.243  0.1432E+02  0.2727E+02
     -8.152  0.1424E+02  0.2846E+02
     -8.061  0.1329E+02  0.2956E+02
     -7.970  0.1413E+02  0.3082E+02
     -7.879  0.1421E+02  0.3196E+02
     -7.788  0.1364E+02  0.3331E+02
     -7.697  0.1536E+02  0.3461E+02
     -7.606  0.1347E+02  0.3576E+02
     -7.515  0.1888E+02  0.3718E+02
     -7.424  0.1775E+02  0.3869E+02
     -7.333  0.1600E+02  0.4019E+02
     -7.242  0.1724E+02  0.4166E+02
     -7.151  0.1590E+02  0.4305E+02
     -7.060  0.1666E+02  0.4458E+02
     -6.969  0.1862E+02  0.4609E+02
     -6.878  0.1733E+02  0.4762E+02
     -6.787  0.1795E+02  0.4917E+02
     -6.696  0.1765E+02  0.5065E+02
     -6.605  0.1751E+02  0.5219E+02
     -6.514  0.1940E+02  0.5381E+02
     -6.423  0.1500E+02  0.5523E+02
     -6.332  0.1444E+02  0.5658E+02
     -6.241  0.1426E+02  0.5780E+02
     -6.150  0.1484E+02  0.5910E+02
     -6.059  0.1456E+02  0.6046E+02
     -5.968  0.1308E+02  0.6173E+02
     -5.877  0.1229E+02  0.6285E+02
     -5.786  0.1310E+02  0.6398E+02
     -5.695  0.1545E+02  0.6525E+02
     -5.604  0.1533E+02  0.6660E+02
     -5.514  0.1757E+02  0.6806E+02
     -5.423  0.1695E+02  0.6956E+02
     -5.332  0.1778E+02  0.7112E+02
     -5.241  0.1805E+02  0.7273E+02
     -5.150  0.1860E+02  0.7441E+02
     -5.059  0.1899E+02  0.7608E+02
     -4.968  0.1958E+02  0.7783E+02
     -4.877  0.1933E+02  0.7952E+02
     -4.786  0.1882E+02  0.8116E+02
     -4.695  0.1951E+02  0.8272E+02
     -4.604  0.1819E+02  0.8430E+02
     -4.513  0.1562E+02  0.8583E+02
     -4.422  0.1692E+02  0.8728E+02
     -4.331  0.1510E+02  0.8863E+02
     -4.240  0.1432E+02  0.8998E+02
     -4.149  0.1431E+02  0.9125E+02
     -4.058  0.1402E+02  0.9252E+02
     -3.967  0.1261E+02  0.9371E+02
     -3.876  0.1096E+02  0.9477E+02
     -3.785  0.9460E+01  0.9569E+02
     -3.694  0.1042E+02  0.9659E+02
     -3.603  0.1238E+02  0.9761E+02
     -3.512  0.1404E+02  0.9882E+02
     -3.421  0.1558E+02  0.1002E+03
     -3.330  0.1660E+02  0.1016E+03
     -3.239  0.1786E+02  0.1032E+03
     -3.148  0.1876E+02  0.1049E+03
     -3.057  0.1872E+02  0.1066E+03
     -2.966  0.1925E+02  0.1083E+03
     -2.875  0.2059E+02  0.1101E+03
     -2.784  0.2136E+02  0.1120E+03
     -2.693  0.2316E+02  0.1140E+03
     -2.602  0.2319E+02  0.1161E+03
     -2.511  0.2265E+02  0.1181E+03
     -2.420  0.2323E+02  0.1202E+03
     -2.329  0.2387E+02  0.1222E+03
     -2.238  0.2368E+02  0.1243E+03
     -2.147  0.2647E+02  0.1265E+03
     -2.056  0.2652E+02  0.1288E+03
     -1.965  0.2857E+02  0.1313E+03
     -1.874  0.2991E+02  0.1339E+03
     -1.783  0.2908E+02  0.1366E+03
     -1.692  0.2915E+02  0.1392E+03
     -1.601  0.2956E+02  0.1418E+03
     -1.510  0.2926E+02  0.1445E+03
     -1.419  0.2951E+02  0.1471E+03
     -1.328  0.2851E+02  0.1497E+03
     -1.237  0.2962E+02  0.1523E+03
     -1.146  0.2867E+02  0.1550E+03
     -1.055  0.2943E+02  0.1576E+03
     -0.964  0.3094E+02  0.1603E+03
     -0.873  0.3083E+02  0.1631E+03
     -0.782  0.2919E+02  0.1658E+03
     -0.691  0.2885E+02  0.1685E+03
     -0.601  0.2996E+02  0.1711E+03
     -0.510  0.3072E+02  0.1739E+03
     -0.419  0.3020E+02  0.1767E+03
     -0.328  0.3037E+02  0.1795E+03
     -0.237  0.3008E+02  0.1822E+03
     -0.146  0.3142E+02  0.1850E+03
     -0.055  0.3201E+02  0.1879E+03
      0.036  0.3178E+02  0.1908E+03
      0.127  0.3320E+02  0.1937E+03
      0.218  0.3235E+02  0.1966E+03
      0.309  0.3083E+02  0.1994E+03
      0.400  0.3297E+02  0.2023E+03
      0.491  0.3222E+02  0.2051E+03
      0.582  0.3328E+02  0.2081E+03
      0.673  0.3372E+02  0.2111E+03
      0.764  0.3379E+02  0.2141E+03
      0.855  0.3454E+02  0.2172E+03
      0.946  0.3357E+02  0.2202E+03
      1.037  0.3479E+02  0.2233E+03
      1.128  0.3657E+02  0.2265E+03
      1.219  0.3565E+02  0.2298E+03
      1.310  0.3595E+02  0.2330E+03
      1.401  0.3728E+02  0.2363E+03
      1.492  0.3670E+02  0.2397E+03
      1.583  0.3740E+02  0.2430E+03
      1.674  0.3954E+02  0.2464E+03
      1.765  0.4156E+02  0.2500E+03
      1.856  0.4108E+02  0.2535E+03
      1.947  0.4147E+02  0.2572E+03
      2.038  0.4305E+02  0.2608E+03
      2.129  0.4457E+02  0.2646E+03
      2.220  0.4277E+02  0.2683E+03
      2.311  0.4187E+02  0.2719E+03
      2.402  0.4235E+02  0.2755E+03
      2.493  0.4435E+02  0.2792E+03
      2.584  0.4385E+02  0.2829E+03
      2.675  0.4527E+02  0.2867E+03
      2.766  0.4336E+02  0.2904E+03
      2.857  0.4598E+02  0.2942E+03
      2.948  0.4434E+02  0.2980E+03
      3.039  0.4246E+02  0.3016E+03
      3.130  0.4473E+02  0.3053E+03
      3.221  0.4430E+02  0.3090E+03
      3.312  0.4340E+02  0.3126E+03
      3.403  0.4259E+02  0.3162E+03
      3.494  0.4331E+02  0.3198E+03
      3.585  0.4247E+02  0.3232E+03
      3.676  0.4012E+02  0.3267E+03
      3.767  0.3862E+02  0.3299E+03
      3.858  0.3804E+02  0.3332E+03
      3.949  0.3725E+02  0.3364E+03
      4.040  0.3619E+02  0.3395E+03
      4.131  0.3562E+02  0.3426E+03
      4.221  0.3420E+02  0.3456E+03
      4.312  0.3499E+02  0.3486E+03
      4.403  0.3391E+02  0.3516E+03
      4.494  0.3285E+02  0.3545E+03
      4.585  0.3037E+02  0.3572E+03
      4.676  0.2920E+02  0.3599E+03
      4.767  0.2942E+02  0.3624E+03
      4.858  0.2823E+02  0.3650E+03
      4.949  0.2534E+02  0.3674E+03
      5.040  0.2339E+02  0.3695E+03
      5.131  0.2225E+02  0.3715E+03
      5.222  0.1987E+02  0.3734E+03
      5.313  0.1886E+02  0.3751E+03
      5.404  0.1665E+02  0.3766E+03
      5.495  0.1542E+02  0.3781E+03
      5.586  0.1213E+02  0.3793E+03
      5.677  0.1051E+02  0.3802E+03
      5.768  0.9371E+01  0.3811E+03
      5.859  0.7002E+01  0.3818E+03
      5.950  0.5057E+01  0.3823E+03
      6.041  0.4553E+01  0.3827E+03
      6.132  0.3351E+01  0.3831E+03
      6.223  0.3636E+01  0.3834E+03
      6.314  0.2605E+01  0.3837E+03
      6.405  0.1145E+01  0.3838E+03
      6.496  0.6834E+00  0.3839E+03
      6.587  0.7306E+00  0.3840E+03
      6.678  0.2205E+00  0.3840E+03
      6.769  0.1101E+01  0.3841E+03
      6.860  0.1458E+01  0.3842E+03
      6.951  0.5137E+01  0.3845E+03
      7.042  0.5313E+01  0.3849E+03
      7.133  0.6643E+01  0.3855E+03
      7.224  0.7343E+01  0.3861E+03
      7.315  0.9294E+01  0.3869E+03
      7.406  0.9812E+01  0.3877E+03
      7.497  0.1168E+02  0.3887E+03
      7.588  0.1310E+02  0.3897E+03
      7.679  0.1596E+02  0.3911E+03
      7.770  0.1569E+02  0.3925E+03
      7.861  0.1777E+02  0.3939E+03
      7.952  0.1750E+02  0.3955E+03
      8.043  0.1863E+02  0.3971E+03
      8.134  0.1895E+02  0.3988E+03
      8.225  0.2052E+02  0.4005E+03
      8.316  0.2104E+02  0.4024E+03
      8.407  0.2287E+02  0.4044E+03
      8.498  0.2083E+02  0.4064E+03
      8.589  0.2301E+02  0.4083E+03
      8.680  0.2467E+02  0.4104E+03
      8.771  0.2468E+02  0.4126E+03
      8.862  0.2325E+02  0.4147E+03
      8.953  0.2413E+02  0.4169E+03
      9.044  0.2545E+02  0.4191E+03
      9.134  0.2523E+02  0.4213E+03
      9.225  0.2763E+02  0.4236E+03
      9.316  0.2794E+02  0.4259E+03
      9.407  0.2823E+02  0.4281E+03
      9.498  0.2872E+02  0.4304E+03
      9.589  0.2998E+02  0.4325E+03
      9.680  0.2816E+02  0.4348E+03
      9.771  0.2981E+02  0.4371E+03
      9.862  0.3006E+02  0.4395E+03
      9.953  0.2882E+02  0.4419E+03
     10.044  0.3028E+02  0.4443E+03
     10.135  0.2742E+02  0.4467E+03
     10.226  0.2768E+02  0.4490E+03
     10.317  0.2826E+02  0.4515E+03
     10.408  0.2668E+02  0.4538E+03
     10.499  0.2671E+02  0.4562E+03
     10.590  0.2691E+02  0.4586E+03
     10.681  0.2787E+02  0.4609E+03
     10.772  0.2969E+02  0.4635E+03
     10.863  0.2923E+02  0.4660E+03
     10.954  0.2963E+02  0.4686E+03
     11.045  0.2942E+02  0.4711E+03
     11.136  0.2973E+02  0.4737E+03
     11.227  0.2985E+02  0.4763E+03
     11.318  0.2953E+02  0.4789E+03
     11.409  0.2903E+02  0.4816E+03
     11.500  0.2954E+02  0.4842E+03
     11.591  0.2933E+02  0.4868E+03
     11.682  0.2892E+02  0.4893E+03
     11.773  0.2903E+02  0.4919E+03
     11.864  0.2925E+02  0.4945E+03
     11.955  0.2879E+02  0.4970E+03
     12.046  0.3064E+02  0.4996E+03
     12.137  0.2857E+02  0.5021E+03
     12.228  0.2496E+02  0.5045E+03
     12.319  0.5682E+01  0.5059E+03
     12.410  0.2104E-01  0.5060E+03
     12.501  0.0000E+00  0.5060E+03
     12.592  0.0000E+00  0.5060E+03
     12.683  0.0000E+00  0.5060E+03
     12.774  0.0000E+00  0.5060E+03
     12.865  0.0000E+00  0.5060E+03
     12.956  0.0000E+00  0.5060E+03
     13.047  0.0000E+00  0.5060E+03
     13.138  0.0000E+00  0.5060E+03
     13.229  0.0000E+00  0.5060E+03
     13.320  0.0000E+00  0.5060E+03
     13.411  0.0000E+00  0.5060E+03
     13.502  0.0000E+00  0.5060E+03
     13.593  0.0000E+00  0.5060E+03
     13.684  0.0000E+00  0.5060E+03
     13.775  0.0000E+00  0.5060E+03
     13.866  0.0000E+00  0.5060E+03
     13.957  0.0000E+00  0.5060E+03
     14.047  0.0000E+00  0.5060E+03
     14.138  0.0000E+00  0.5060E+03
     14.229  0.0000E+00  0.5060E+03
     14.320  0.0000E+00  0.5060E+03
     14.36870181    -12.99335137  301      6.90614288      1.00000000
    -12.993  0.0000E+00  0.0000E+00
    -12.902  0.0000E+00  0.0000E+00
    -12.811  0.0000E+00  0.0000E+00
    -12.720  0.0000E+00  0.0000E+00
    -12.629  0.0000E+00  0.0000E+00
    -12.537  0.0000E+00  0.0000E+00
    -12.446  0.0000E+00  0.0000E+00
    -12.355  0.0000E+00  0.0000E+00
    -12.264  0.0000E+00  0.0000E+00
    -12.172  0.0000E+00  0.0000E+00
    -12.081  0.0000E+00  0.0000E+00
    -11.990  0.0000E+00  0.0000E+00
    -11.899  0.0000E+00  0.0000E+00
    -11.808  0.0000E+00  0.0000E+00
    -11.716  0.0000E+00  0.0000E+00
    -11.625  0.0000E+00  0.0000E+00
    -11.534  0.0000E+00  0.0000E+00
    -11.443  0.0000E+00  0.0000E+00
    -11.352  0.0000E+00  0.0000E+00
    -11.260  0.0000E+00  0.0000E+00
    -11.169  0.0000E+00  0.0000E+00
    -11.078  0.0000E+00  0.0000E+00
    -10.987  0.1657E-03  0.3618E-06
    -10.896  0.3690E-01  0.1202E-02
    -10.804  0.3655E-01  0.6667E-02
    -10.713  0.0000E+00  0.6667E-02
    -10.622  0.7971E-01  0.9744E-02
    -10.531  0.0000E+00  0.1333E-01
    -10.440  0.6906E-01  0.1697E-01
    -10.348  0.0000E+00  0.2000E-01
    -10.257  0.8162E-01  0.2265E-01
    -10.166  0.4175E-02  0.2664E-01
    -10.075  0.8986E-01  0.3007E-01
     -9.984  0.6768E-01  0.3489E-01
     -9.892  0.3584E-01  0.4090E-01
     -9.801  0.3987E-01  0.4583E-01
     -9.710  0.6590E-01  0.4775E-01
     -9.619  0.1004E-01  0.5330E-01
     -9.527  0.0000E+00  0.5333E-01
     -9.436  0.3255E-03  0.5333E-01
     -9.345  0.2194E-01  0.5409E-01
     -9.254  0.3081E-01  0.5678E-01
     -9.163  0.3122E-01  0.5971E-01
     -9.071  0.3940E-01  0.6202E-01
     -8.980  0.1931E-01  0.6650E-01
     -8.889  0.3869E-01  0.6776E-01
     -8.798  0.1595E-01  0.7328E-01
     -8.707  0.1001E-01  0.7344E-01
     -8.615  0.7902E-01  0.7889E-01
     -8.524  0.1216E+00  0.8475E-01
     -8.433  0.6292E-01  0.9308E-01
     -8.342  0.4012E-01  0.9437E-01
     -8.251  0.2710E-01  0.1000E+00
     -8.159  0.6390E-01  0.1058E+00
     -8.068  0.9306E-01  0.1124E+00
     -7.977  0.7589E-01  0.1168E+00
     -7.886  0.5343E-01  0.1206E+00
     -7.795  0.2948E-01  0.1262E+00
     -7.703  0.1437E-01  0.1270E+00
     -7.612  0.6196E-01  0.1315E+00
     -7.521  0.4916E-01  0.1350E+00
     -7.430  0.3838E-01  0.1412E+00
     -7.339  0.4515E-01  0.1456E+00
     -7.247  0.7224E-01  0.1502E+00
     -7.156  0.4917E-01  0.1540E+00
     -7.065  0.3985E-01  0.1600E+00
     -6.974  0.7093E-01  0.1661E+00
     -6.882  0.7580E-01  0.1706E+00
     -6.791  0.4529E-01  0.1740E+00
     -6.700  0.3595E-01  0.1795E+00
     -6.609  0.4507E-01  0.1818E+00
     -6.518  0.3584E-01  0.1865E+00
     -6.426  0.3935E-01  0.1894E+00
     -6.335  0.3500E-01  0.1930E+00
     -6.244  0.3425E-01  0.1963E+00
     -6.153  0.3312E-01  0.1990E+00
     -6.062  0.5020E-01  0.2033E+00
     -5.970  0.6013E-01  0.2096E+00
     -5.879  0.2897E-01  0.2127E+00
     -5.788  0.6585E-01  0.2175E+00
     -5.697  0.5017E-01  0.2233E+00
     -5.606  0.4866E-01  0.2272E+00
     -5.514  0.4547E-01  0.2319E+00
     -5.423  0.5374E-01  0.2369E+00
     -5.332  0.3132E-01  0.2405E+00
     -5.241  0.4965E-01  0.2462E+00
     -5.150  0.5987E-01  0.2495E+00
     -5.058  0.6783E-01  0.2551E+00
     -4.967  0.2777E-01  0.2606E+00
     -4.876  0.5798E-01  0.2666E+00
     -4.785  0.7264E-01  0.2715E+00
     -4.694  0.7328E-01  0.2776E+00
     -4.602  0.4752E-01  0.2811E+00
     -4.511  0.6670E-01  0.2876E+00
     -4.420  0.4965E-01  0.2922E+00
     -4.329  0.5664E-01  0.2971E+00
     -4.237  0.6210E-01  0.3020E+00
     -4.146  0.4453E-01  0.3072E+00
     -4.055  0.8676E-01  0.3128E+00
     -3.964  0.5055E-01  0.3186E+00
     -3.873  0.2680E-01  0.3222E+00
     -3.781  0.2274E-01  0.3241E+00
     -3.690  0.3753E-01  0.3274E+00
     -3.599  0.3264E-01  0.3305E+00
     -3.508  0.5514E-01  0.3343E+00
     -3.417  0.6492E-01  0.3401E+00
     -3.325  0.7183E-01  0.3465E+00
     -3.234  0.6874E-01  0.3526E+00
     -3.143  0.7041E-01  0.3589E+00
     -3.052  0.6475E-01  0.3651E+00
     -2.961  0.4971E-01  0.3701E+00
     -2.869  0.6878E-01  0.3766E+00
     -2.778  0.7586E-01  0.3831E+00
     -2.687  0.1014E+00  0.3899E+00
     -2.596  0.1070E+00  0.3983E+00
     -2.505  0.6918E-01  0.4048E+00
     -2.413  0.7736E-01  0.4115E+00
     -2.322  0.7694E-01  0.4174E+00
     -2.231  0.6309E-01  0.4243E+00
     -2.140  0.1166E+00  0.4324E+00
     -2.049  0.7783E-01  0.4399E+00
     -1.957  0.8476E-01  0.4477E+00
     -1.866  0.9229E-01  0.4556E+00
     -1.775  0.1052E+00  0.4651E+00
     -1.684  0.9721E-01  0.4743E+00
     -1.592  0.9713E-01  0.4831E+00
     -1.501  0.1006E+00  0.4925E+00
     -1.410  0.1148E+00  0.5022E+00
     -1.319  0.9311E-01  0.5117E+00
     -1.228  0.9698E-01  0.5201E+00
     -1.136  0.1022E+00  0.5290E+00
     -1.045  0.1078E+00  0.5382E+00
     -0.954  0.8718E-01  0.5474E+00
     -0.863  0.1141E+00  0.5559E+00
     -0.772  0.8109E-01  0.5651E+00
     -0.680  0.9677E-01  0.5731E+00
     -0.589  0.1147E+00  0.5833E+00
     -0.498  0.1130E+00  0.5934E+00
     -0.407  0.8598E-01  0.6021E+00
     -0.316  0.1045E+00  0.6129E+00
     -0.224  0.1121E+00  0.6212E+00
     -0.133  0.1001E+00  0.6312E+00
     -0.042  0.1190E+00  0.6418E+00
      0.049  0.1044E+00  0.6504E+00
      0.140  0.1160E+00  0.6610E+00
      0.232  0.7896E-01  0.6692E+00
      0.323  0.1252E+00  0.6779E+00
      0.414  0.1253E+00  0.6894E+00
      0.505  0.1029E+00  0.6994E+00
      0.596  0.1200E+00  0.7102E+00
      0.688  0.1231E+00  0.7211E+00
      0.779  0.1194E+00  0.7323E+00
      0.870  0.1193E+00  0.7435E+00
      0.961  0.1062E+00  0.7529E+00
      1.053  0.1114E+00  0.7631E+00
      1.144  0.1416E+00  0.7749E+00
      1.235  0.1007E+00  0.7853E+00
      1.326  0.1358E+00  0.7969E+00
      1.417  0.1099E+00  0.8079E+00
      1.509  0.1214E+00  0.8179E+00
      1.600  0.1408E+00  0.8300E+00
      1.691  0.1450E+00  0.8422E+00
      1.782  0.1310E+00  0.8534E+00
      1.873  0.1733E+00  0.8667E+00
      1.965  0.1646E+00  0.8789E+00
      2.056  0.1680E+00  0.8926E+00
      2.147  0.1203E+00  0.9038E+00
      2.238  0.1158E+00  0.9163E+00
      2.329  0.1720E+00  0.9308E+00
      2.421  0.1203E+00  0.9420E+00
      2.512  0.1464E+00  0.9538E+00
      2.603  0.1007E+00  0.9648E+00
      2.694  0.1790E+00  0.9763E+00
      2.785  0.1664E+00  0.9910E+00
      2.877  0.1196E+00  0.1003E+01
      2.968  0.1923E+00  0.1016E+01
      3.059  0.2314E+00  0.1030E+01
      3.150  0.9556E-01  0.1040E+01
      3.241  0.1575E+00  0.1051E+01
      3.333  0.1538E+00  0.1062E+01
      3.424  0.1232E+00  0.1074E+01
      3.515  0.1413E+00  0.1085E+01
      3.606  0.2062E+00  0.1096E+01
      3.698  0.1346E+00  0.1110E+01
      3.789  0.1329E+00  0.1121E+01
      3.880  0.9979E-01  0.1130E+01
      3.971  0.1120E+00  0.1140E+01
      4.062  0.1235E+00  0.1151E+01
      4.154  0.1321E+00  0.1159E+01
      4.245  0.1248E+00  0.1170E+01
      4.336  0.1667E+00  0.1179E+01
      4.427  0.1066E+00  0.1188E+01
      4.518  0.1163E+00  0.1199E+01
      4.610  0.1346E+00  0.1208E+01
      4.701  0.9219E-01  0.1217E+01
      4.792  0.1243E+00  0.1227E+01
      4.883  0.1168E+00  0.1238E+01
      4.974  0.8292E-01  0.1246E+01
      5.066  0.6417E-01  0.1253E+01
      5.157  0.5054E-01  0.1257E+01
      5.248  0.6155E-01  0.1262E+01
      5.339  0.3465E-01  0.1267E+01
      5.430  0.3150E-01  0.1270E+01
      5.522  0.2023E-01  0.1272E+01
      5.613  0.5921E-02  0.1273E+01
      5.704  0.4413E-01  0.1277E+01
      5.795  0.1509E-01  0.1279E+01
      5.886  0.1717E-02  0.1280E+01
      5.978  0.0000E+00  0.1280E+01
      6.069  0.0000E+00  0.1280E+01
      6.160  0.0000E+00  0.1280E+01
      6.251  0.0000E+00  0.1280E+01
      6.342  0.0000E+00  0.1280E+01
      6.434  0.0000E+00  0.1280E+01
      6.525  0.0000E+00  0.1280E+01
      6.616  0.0000E+00  0.1280E+01
      6.707  0.0000E+00  0.1280E+01
      6.799  0.0000E+00  0.1280E+01
      6.890  0.0000E+00  0.1280E+01
      6.981  0.1155E-01  0.1280E+01
      7.072  0.3144E-01  0.1283E+01
      7.163  0.2186E-01  0.1285E+01
      7.255  0.6956E-02  0.1287E+01
      7.346  0.1267E-01  0.1287E+01
      7.437  0.3424E-01  0.1289E+01
      7.528  0.2198E-01  0.1292E+01
      7.619  0.4487E-01  0.1295E+01
      7.711  0.7548E-01  0.1300E+01
      7.802  0.6941E-01  0.1306E+01
      7.893  0.5085E-01  0.1313E+01
      7.984  0.4249E-01  0.1316E+01
      8.075  0.7357E-01  0.1323E+01
      8.167  0.9068E-01  0.1330E+01
      8.258  0.9840E-01  0.1339E+01
      8.349  0.8072E-01  0.1346E+01
      8.440  0.5695E-01  0.1352E+01
      8.531  0.6152E-01  0.1358E+01
      8.623  0.8163E-01  0.1366E+01
      8.714  0.2856E-01  0.1373E+01
      8.805  0.6674E-01  0.1379E+01
      8.896  0.6660E-01  0.1384E+01
      8.987  0.1285E+00  0.1395E+01
      9.079  0.1060E+00  0.1402E+01
      9.170  0.1125E+00  0.1408E+01
      9.261  0.8780E-01  0.1416E+01
      9.352  0.6514E-01  0.1426E+01
      9.444  0.1280E+00  0.1432E+01
      9.535  0.1423E+00  0.1439E+01
      9.626  0.8828E-01  0.1447E+01
      9.717  0.8595E-01  0.1453E+01
      9.808  0.9395E-01  0.1462E+01
      9.900  0.9438E-01  0.1469E+01
      9.991  0.8878E-01  0.1476E+01
     10.082  0.9343E-01  0.1483E+01
     10.173  0.6590E-01  0.1491E+01
     10.264  0.7417E-01  0.1497E+01
     10.356  0.1138E+00  0.1507E+01
     10.447  0.6538E-01  0.1515E+01
     10.538  0.1082E+00  0.1521E+01
     10.629  0.9756E-01  0.1530E+01
     10.720  0.7616E-01  0.1539E+01
     10.812  0.1010E+00  0.1547E+01
     10.903  0.6992E-01  0.1556E+01
     10.994  0.1000E+00  0.1563E+01
     11.085  0.1068E+00  0.1573E+01
     11.176  0.1077E+00  0.1582E+01
     11.268  0.8481E-01  0.1591E+01
     11.359  0.8486E-01  0.1598E+01
     11.450  0.9777E-01  0.1607E+01
     11.541  0.1113E+00  0.1616E+01
     11.632  0.9385E-01  0.1625E+01
     11.724  0.8050E-01  0.1633E+01
     11.815  0.8544E-01  0.1640E+01
     11.906  0.7081E-01  0.1648E+01
     11.997  0.9194E-01  0.1656E+01
     12.089  0.9878E-01  0.1663E+01
     12.180  0.8533E-01  0.1672E+01
     12.271  0.1616E+00  0.1680E+01
     12.362  0.9300E-02  0.1687E+01
     12.453  0.0000E+00  0.1687E+01
     12.545  0.0000E+00  0.1687E+01
     12.636  0.0000E+00  0.1687E+01
     12.727  0.0000E+00  0.1687E+01
     12.818  0.0000E+00  0.1687E+01
     12.909  0.0000E+00  0.1687E+01
     13.001  0.0000E+00  0.1687E+01
     13.092  0.0000E+00  0.1687E+01
     13.183  0.0000E+00  0.1687E+01
     13.274  0.0000E+00  0.1687E+01
     13.365  0.0000E+00  0.1687E+01
     13.457  0.0000E+00  0.1687E+01
     13.548  0.0000E+00  0.1687E+01
     13.639  0.0000E+00  0.1687E+01
     13.730  0.0000E+00  0.1687E+01
     13.821  0.0000E+00  0.1687E+01
     13.913  0.0000E+00  0.1687E+01
     14.004  0.0000E+00  0.1687E+01
     14.095  0.0000E+00  0.1687E+01
     14.186  0.0000E+00  0.1687E+01
     14.277  0.0000E+00  0.1687E+01
     14.369  0.0000E+00  0.1687E+01
