       N       E                     dE             d eps       ncg     rms          rms(c)
DAV:   1     0.153700934157E+04    0.15370E+04   -0.21913E+05  4048   0.179E+03
DAV:   2    -0.780496174706E+03   -0.23175E+04   -0.21835E+04  4920   0.315E+02
DAV:   3    -0.927822129099E+03   -0.14733E+03   -0.14506E+03  4888   0.704E+01
DAV:   4    -0.931428896100E+03   -0.36068E+01   -0.35852E+01  4832   0.113E+01
DAV:   5    -0.931530480462E+03   -0.10158E+00   -0.10140E+00  4808   0.180E+00    0.406E+01
RMM:   6    -0.886198427088E+03    0.45332E+02   -0.64357E+01  4048   0.117E+01    0.218E+01
RMM:   7    -0.877991869612E+03    0.82066E+01   -0.55523E+01  4048   0.113E+01    0.791E+00
RMM:   8    -0.877591092442E+03    0.40078E+00   -0.73974E+00  4048   0.452E+00    0.257E+00
RMM:   9    -0.877296585672E+03    0.29451E+00   -0.20276E+00  4048   0.225E+00    0.927E-01
RMM:  10    -0.877297520995E+03   -0.93532E-03   -0.27116E-01  4128   0.946E-01    0.665E-01
RMM:  11    -0.877287444653E+03    0.10076E-01   -0.65594E-02  4048   0.448E-01    0.130E-01
RMM:  12    -0.877289059753E+03   -0.16151E-02   -0.10156E-02  4090   0.185E-01    0.156E-01
RMM:  13    -0.877288457016E+03    0.60274E-03   -0.25444E-03  4137   0.794E-02    0.670E-02
RMM:  14    -0.877288468889E+03   -0.11873E-04   -0.20518E-03  3996   0.683E-02    0.324E-02
RMM:  15    -0.877288445310E+03    0.23579E-04   -0.17878E-04  2580   0.276E-02
    1 T=  2326. E= -.84151448E+03 F= -.87728845E+03 E0= -.87728845E+03  EK= 0.35774E+02 SP= 0.00E+00 SK= 0.99E-08
       N       E                     dE             d eps       ncg     rms          rms(c)
DAV:   1    -0.877107174255E+03    0.18129E+00   -0.18287E+01  4408   0.913E+00    0.105E+00
RMM:   2    -0.877110351340E+03   -0.31771E-02   -0.37279E-01  4048   0.129E+00    0.603E-01
RMM:   3    -0.877104899060E+03    0.54523E-02   -0.75938E-02  4048   0.519E-01    0.194E-01
RMM:   4    -0.877105629084E+03   -0.73002E-03   -0.11097E-02  4119   0.208E-01    0.113E-01
RMM:   5    -0.877105738212E+03   -0.10913E-03   -0.24854E-03  4096   0.938E-02    0.288E-02
RMM:   6    -0.877105777975E+03   -0.39763E-04   -0.56921E-04  3468   0.425E-02
    2 T=  2314. E= -.84151320E+03 F= -.87710578E+03 E0= -.87710578E+03  EK= 0.35592E+02 SP= 0.26E-03 SK= 0.19E-05
       N       E                     dE             d eps       ncg     rms          rms(c)
DAV:   1    -0.876515987811E+03    0.58975E+00   -0.52132E-02  5424   0.171E+00    0.231E-01
RMM:   2    -0.876520564529E+03   -0.45767E-02   -0.47650E-02  4048   0.528E-01    0.683E-02
RMM:   3    -0.876521053972E+03   -0.48944E-03   -0.49371E-03  4049   0.161E-01    0.640E-02
RMM:   4    -0.876521103853E+03   -0.49881E-04   -0.89455E-04  4103   0.602E-02
    3 T=  2276. E= -.84150869E+03 F= -.87652110E+03 E0= -.87652110E+03  EK= 0.35016E+02 SP= -.37E-02 SK= 0.98E-04
       N       E                     dE             d eps       ncg     rms          rms(c)
DAV:   1    -0.875549472510E+03    0.97158E+00   -0.13252E-01  5379   0.163E+00    0.206E-01
RMM:   2    -0.875553822418E+03   -0.43499E-02   -0.46068E-02  4048   0.455E-01    0.779E-02
RMM:   3    -0.875554458747E+03   -0.63633E-03   -0.59836E-03  4049   0.159E-01    0.430E-02
RMM:   4    -0.875554548044E+03   -0.89297E-04   -0.11247E-03  4114   0.624E-02    0.260E-02
RMM:   5    -0.875554566567E+03   -0.18523E-04   -0.28875E-04  2817   0.293E-02
    4 T=  2215. E= -.84150107E+03 F= -.87555457E+03 E0= -.87555457E+03  EK= 0.34079E+02 SP= -.26E-01 SK= 0.11E-02
       N       E                     dE             d eps       ncg     rms          rms(c)
DAV:   1    -0.874233630459E+03    0.13209E+01   -0.63715E-02  6272   0.156E+00    0.122E-01
RMM:   2    -0.874236936223E+03   -0.33058E-02   -0.35454E-02  4048   0.390E-01    0.972E-02
RMM:   3    -0.874237423440E+03   -0.48722E-03   -0.50516E-03  4084   0.144E-01    0.981E-02
RMM:   4    -0.874237461857E+03   -0.38418E-04   -0.94782E-04  4070   0.572E-02
    5 T=  2134. E= -.84149106E+03 F= -.87423746E+03 E0= -.87423746E+03  EK= 0.32831E+02 SP= -.90E-01 SK= 0.57E-02
       N       E                     dE             d eps       ncg     rms          rms(c)
DAV:   1    -0.872607986157E+03    0.16294E+01   -0.54727E-02  5892   0.147E+00    0.174E-01
RMM:   2    -0.872610073337E+03   -0.20872E-02   -0.26878E-02  4048   0.330E-01    0.717E-02
RMM:   3    -0.872610470816E+03   -0.39748E-03   -0.47707E-03  4062   0.130E-01    0.228E-02
RMM:   4    -0.872610544633E+03   -0.73816E-04   -0.83635E-04  3991   0.555E-02
    6 T=  2037. E= -.84147945E+03 F= -.87261054E+03 E0= -.87261054E+03  EK= 0.31337E+02 SP= -.23E+00 SK= 0.21E-01
       N       E                     dE             d eps       ncg     rms          rms(c)
DAV:   1    -0.870720192432E+03    0.18903E+01   -0.38134E-02  6612   0.146E+00    0.749E-02
RMM:   2    -0.870722629886E+03   -0.24375E-02   -0.25007E-02  4048   0.302E-01    0.699E-02
RMM:   3    -0.870722891284E+03   -0.26140E-03   -0.34357E-03  4076   0.116E-01    0.715E-02
RMM:   4    -0.870723160174E+03   -0.26889E-03   -0.11437E-03  4054   0.567E-02    0.108E-01
RMM:   5    -0.870722825057E+03    0.33512E-03   -0.55531E-04  3731   0.369E-02    0.508E-02
RMM:   6    -0.870722793569E+03    0.31488E-04   -0.46300E-04  3330   0.312E-02
    7 T=  1929. E= -.84146719E+03 F= -.87072279E+03 E0= -.87072279E+03  EK= 0.29669E+02 SP= -.47E+00 SK= 0.58E-01
       N       E                     dE             d eps       ncg     rms          rms(c)
DAV:   1    -0.868626913538E+03    0.20959E+01   -0.34656E-02  6102   0.134E+00    0.769E-02
RMM:   2    -0.868628579698E+03   -0.16662E-02   -0.18052E-02  4048   0.253E-01    0.394E-02
RMM:   3    -0.868628868875E+03   -0.28918E-03   -0.28778E-03  4117   0.986E-02    0.256E-02
RMM:   4    -0.868628916401E+03   -0.47526E-04   -0.54541E-04  3538   0.403E-02
    8 T=  1814. E= -.84145495E+03 F= -.86862892E+03 E0= -.86862892E+03  EK= 0.27905E+02 SP= -.87E+00 SK= 0.14E+00
       N       E                     dE             d eps       ncg     rms          rms(c)
DAV:   1    -0.866385351399E+03    0.22435E+01   -0.32044E-02  6371   0.128E+00    0.855E-02
RMM:   2    -0.866387059500E+03   -0.17081E-02   -0.18187E-02  4048   0.255E-01    0.328E-02
RMM:   3    -0.866387362544E+03   -0.30304E-03   -0.29653E-03  4170   0.102E-01    0.270E-02
RMM:   4    -0.866387403608E+03   -0.41065E-04   -0.54335E-04  3591   0.410E-02
    9 T=  1698. E= -.84144355E+03 F= -.86638740E+03 E0= -.86638740E+03  EK= 0.26118E+02 SP= -.15E+01 SK= 0.28E+00
       N       E                     dE             d eps       ncg     rms          rms(c)
DAV:   1    -0.864056816639E+03    0.23305E+01   -0.34706E-02  6209   0.121E+00    0.570E-02
RMM:   2    -0.864058333048E+03   -0.15164E-02   -0.15478E-02  4048   0.233E-01    0.277E-02
RMM:   3    -0.864058589358E+03   -0.25631E-03   -0.24799E-03  4128   0.924E-02    0.248E-02
RMM:   4    -0.864058632209E+03   -0.42851E-04   -0.48178E-04  3433   0.383E-02
   10 T=  1585. E= -.84143371E+03 F= -.86405863E+03 E0= -.86405863E+03  EK= 0.24381E+02 SP= -.23E+01 SK= 0.53E+00
       N       E                     dE             d eps       ncg     rms          rms(c)
DAV:   1    -0.861701064867E+03    0.23575E+01   -0.28013E-02  6417   0.113E+00    0.448E-02
RMM:   2    -0.861702405684E+03   -0.13408E-02   -0.13690E-02  4048   0.212E-01    0.300E-02
RMM:   3    -0.861702641191E+03   -0.23551E-03   -0.23317E-03  4172   0.863E-02    0.275E-02
RMM:   4    -0.861702676219E+03   -0.35027E-04   -0.43706E-04  3262   0.352E-02
   11 T=  1480. E= -.84142620E+03 F= -.86170268E+03 E0= -.86170268E+03  EK= 0.22762E+02 SP= -.34E+01 SK= 0.91E+00
       N       E                     dE             d eps       ncg     rms          rms(c)
DAV:   1    -0.859375445239E+03    0.23272E+01   -0.32155E-02  6159   0.106E+00    0.418E-02
RMM:   2    -0.859376656740E+03   -0.12115E-02   -0.12359E-02  4048   0.204E-01    0.292E-02
RMM:   3    -0.859376869707E+03   -0.21297E-03   -0.20719E-03  4137   0.825E-02    0.251E-02
RMM:   4    -0.859376901191E+03   -0.31484E-04   -0.38404E-04  3161   0.340E-02
   12 T=  1386. E= -.84142159E+03 F= -.85937690E+03 E0= -.85937690E+03  EK= 0.21322E+02 SP= -.48E+01 SK= 0.15E+01
       N       E                     dE             d eps       ncg     rms          rms(c)
DAV:   1    -0.857132687777E+03    0.22442E+01   -0.28810E-02  6137   0.990E-01    0.463E-02
RMM:   2    -0.857133769265E+03   -0.10815E-02   -0.11226E-02  4048   0.191E-01    0.234E-02
RMM:   3    -0.857133967751E+03   -0.19849E-03   -0.19306E-03  4167   0.785E-02    0.199E-02
RMM:   4    -0.857133996769E+03   -0.29018E-04   -0.35208E-04  3044   0.322E-02
   13 T=  1308. E= -.84142027E+03 F= -.85713400E+03 E0= -.85713400E+03  EK= 0.20116E+02 SP= -.66E+01 SK= 0.22E+01
       N       E                     dE             d eps       ncg     rms          rms(c)
DAV:   1    -0.855018577383E+03    0.21154E+01   -0.26323E-02  5996   0.938E-01    0.362E-02
RMM:   2    -0.855019601074E+03   -0.10237E-02   -0.10342E-02  4049   0.180E-01    0.190E-02
RMM:   3    -0.855019791892E+03   -0.19082E-03   -0.18566E-03  4196   0.748E-02    0.185E-02
RMM:   4    -0.855019822556E+03   -0.30665E-04   -0.33347E-04  2965   0.307E-02
   14 T=  1248. E= -.84142238E+03 F= -.85501982E+03 E0= -.85501982E+03  EK= 0.19196E+02 SP= -.88E+01 SK= 0.32E+01
       N       E                     dE             d eps       ncg     rms          rms(c)
DAV:   1    -0.853070351707E+03    0.19494E+01   -0.26980E-02  6153   0.892E-01    0.360E-02
RMM:   2    -0.853071266993E+03   -0.91529E-03   -0.93263E-03  4048   0.172E-01    0.194E-02
RMM:   3    -0.853071439860E+03   -0.17287E-03   -0.16748E-03  4202   0.714E-02    0.176E-02
RMM:   4    -0.853071466366E+03   -0.26506E-04   -0.29412E-04  2846   0.293E-02
   15 T=  1210. E= -.84142780E+03 F= -.85307147E+03 E0= -.85307147E+03  EK= 0.18610E+02 SP= -.11E+02 SK= 0.44E+01
       N       E                     dE             d eps       ncg     rms          rms(c)
DAV:   1    -0.851314528200E+03    0.17569E+01   -0.24923E-02  6113   0.868E-01    0.402E-02
RMM:   2    -0.851315382362E+03   -0.85416E-03   -0.88387E-03  4048   0.165E-01    0.170E-02
RMM:   3    -0.851315547601E+03   -0.16524E-03   -0.15970E-03  4179   0.691E-02    0.141E-02
RMM:   4    -0.851315573026E+03   -0.25425E-04   -0.28477E-04  2812   0.285E-02
   16 T=  1197. E= -.84143598E+03 F= -.85131557E+03 E0= -.85131557E+03  EK= 0.18406E+02 SP= -.14E+02 SK= 0.59E+01
       N       E                     dE             d eps       ncg     rms          rms(c)
DAV:   1    -0.849766135240E+03    0.15494E+01   -0.23307E-02  6169   0.867E-01    0.274E-02
RMM:   2    -0.849767015954E+03   -0.88071E-03   -0.88906E-03  4050   0.161E-01    0.196E-02
RMM:   3    -0.849767177971E+03   -0.16202E-03   -0.15801E-03  4185   0.680E-02    0.181E-02
RMM:   4    -0.849767204731E+03   -0.26759E-04   -0.29678E-04  2806   0.281E-02
   17 T=  1211. E= -.84144616E+03 F= -.84976720E+03 E0= -.84976720E+03  EK= 0.18631E+02 SP= -.18E+02 SK= 0.75E+01
       N       E                     dE             d eps       ncg     rms          rms(c)
DAV:   1    -0.848427852925E+03    0.13393E+01   -0.21970E-02  6161   0.883E-01    0.336E-02
RMM:   2    -0.848428623350E+03   -0.77042E-03   -0.79499E-03  4048   0.159E-01    0.204E-02
RMM:   3    -0.848428771576E+03   -0.14823E-03   -0.14339E-03  4172   0.659E-02    0.166E-02
RMM:   4    -0.848428794547E+03   -0.22972E-04   -0.25681E-04  2719   0.273E-02
   18 T=  1257. E= -.84145735E+03 F= -.84842879E+03 E0= -.84842879E+03  EK= 0.19333E+02 SP= -.22E+02 SK= 0.93E+01
       N       E                     dE             d eps       ncg     rms          rms(c)
DAV:   1    -0.847288961942E+03    0.11398E+01   -0.21379E-02  6294   0.928E-01    0.431E-02
RMM:   2    -0.847289817343E+03   -0.85540E-03   -0.89194E-03  4048   0.165E-01    0.169E-02
RMM:   3    -0.847289988273E+03   -0.17093E-03   -0.16543E-03  4213   0.694E-02    0.144E-02
RMM:   4    -0.847290012810E+03   -0.24537E-04   -0.27803E-04  2799   0.281E-02
   19 T=  1337. E= -.84146846E+03 F= -.84729001E+03 E0= -.84729001E+03  EK= 0.20564E+02 SP= -.26E+02 SK= 0.11E+02
       N       E                     dE             d eps       ncg     rms          rms(c)
DAV:   1    -0.846326437831E+03    0.96355E+00   -0.23108E-02  6331   0.995E-01    0.338E-02
RMM:   2    -0.846327423064E+03   -0.98523E-03   -0.99995E-03  4051   0.174E-01    0.218E-02
RMM:   3    -0.846327608519E+03   -0.18545E-03   -0.18061E-03  4220   0.730E-02    0.195E-02
RMM:   4    -0.846327637633E+03   -0.29114E-04   -0.32561E-04  2935   0.298E-02
   20 T=  1455. E= -.84147858E+03 F= -.84632764E+03 E0= -.84632764E+03  EK= 0.22375E+02 SP= -.31E+02 SK= 0.13E+02
       N       E                     dE             d eps       ncg     rms          rms(c)
DAV:   1    -0.845504825022E+03    0.82278E+00   -0.26371E-02  6316   0.107E+00    0.468E-02
RMM:   2    -0.845505846235E+03   -0.10212E-02   -0.10704E-02  4048   0.188E-01    0.252E-02
RMM:   3    -0.845506048024E+03   -0.20179E-03   -0.19499E-03  4215   0.775E-02    0.188E-02
RMM:   4    -0.845506078619E+03   -0.30594E-04   -0.34258E-04  3016   0.317E-02
   21 T=  1613. E= -.84148719E+03 F= -.84550608E+03 E0= -.84550608E+03  EK= 0.24819E+02 SP= -.36E+02 SK= 0.15E+02
       N       E                     dE             d eps       ncg     rms          rms(c)
DAV:   1    -0.844776561598E+03    0.72949E+00   -0.30302E-02  6481   0.118E+00    0.514E-02
RMM:   2    -0.844777828691E+03   -0.12671E-02   -0.13160E-02  4048   0.207E-01    0.252E-02
RMM:   3    -0.844778070631E+03   -0.24194E-03   -0.23463E-03  4204   0.856E-02    0.213E-02
RMM:   4    -0.844778106445E+03   -0.35814E-04   -0.41925E-04  3266   0.350E-02
   22 T=  1816. E= -.84149424E+03 F= -.84477811E+03 E0= -.84477811E+03  EK= 0.27938E+02 SP= -.41E+02 SK= 0.16E+02
       N       E                     dE             d eps       ncg     rms          rms(c)
DAV:   1    -0.844084132529E+03    0.69394E+00   -0.34809E-02  6407   0.129E+00    0.443E-02
RMM:   2    -0.844085594349E+03   -0.14618E-02   -0.14845E-02  4048   0.225E-01    0.323E-02
RMM:   3    -0.844085871289E+03   -0.27694E-03   -0.26857E-03  4208   0.911E-02    0.273E-02
RMM:   4    -0.844085912561E+03   -0.41272E-04   -0.46964E-04  3386   0.371E-02
   23 T=  2065. E= -.84150039E+03 F= -.84408591E+03 E0= -.84408591E+03  EK= 0.31760E+02 SP= -.46E+02 SK= 0.17E+02
       N       E                     dE             d eps       ncg     rms          rms(c)
DAV:   1    -0.843360606633E+03    0.72526E+00   -0.39188E-02  6691   0.141E+00    0.650E-02
RMM:   2    -0.843362328264E+03   -0.17216E-02   -0.18089E-02  4048   0.247E-01    0.358E-02
RMM:   3    -0.843362663935E+03   -0.33567E-03   -0.32445E-03  4219   0.101E-01    0.260E-02
RMM:   4    -0.843362714519E+03   -0.50584E-04   -0.57533E-04  3573   0.410E-02
   24 T=  2358. E= -.84150696E+03 F= -.84336271E+03 E0= -.84336271E+03  EK= 0.36273E+02 SP= -.52E+02 SK= 0.17E+02
       N       E                     dE             d eps       ncg     rms          rms(c)
DAV:   1    -0.842532751753E+03    0.82991E+00   -0.42460E-02  6731   0.153E+00    0.660E-02
RMM:   2    -0.842534750239E+03   -0.19985E-02   -0.20571E-02  4048   0.270E-01    0.341E-02
RMM:   3    -0.842535120195E+03   -0.36996E-03   -0.35692E-03  4200   0.108E-01    0.288E-02
RMM:   4    -0.842535177229E+03   -0.57034E-04   -0.65389E-04  3713   0.442E-02
   25 T=  2692. E= -.84151569E+03 F= -.84253518E+03 E0= -.84253518E+03  EK= 0.41410E+02 SP= -.57E+02 SK= 0.17E+02
       N       E                     dE             d eps       ncg     rms          rms(c)
DAV:   1    -0.841523819505E+03    0.10113E+01   -0.45916E-02  6811   0.166E+00    0.586E-02
RMM:   2    -0.841526060094E+03   -0.22406E-02   -0.22717E-02  4048   0.286E-01    0.424E-02
RMM:   3    -0.841526454300E+03   -0.39421E-03   -0.38118E-03  4199   0.113E-01    0.365E-02
RMM:   4    -0.841526518062E+03   -0.63761E-04   -0.71726E-04  3781   0.462E-02
   26 T=  3057. E= -.84152801E+03 F= -.84152652E+03 E0= -.84152652E+03  EK= 0.47019E+02 SP= -.63E+02 SK= 0.16E+02
       N       E                     dE             d eps       ncg     rms          rms(c)
DAV:   1    -0.840258938904E+03    0.12675E+01   -0.52033E-02  6713   0.177E+00    0.827E-02
RMM:   2    -0.840261450263E+03   -0.25114E-02   -0.26191E-02  4048   0.309E-01    0.452E-02
RMM:   3    -0.840261920537E+03   -0.47027E-03   -0.45285E-03  4199   0.122E-01    0.334E-02
RMM:   4    -0.840261994274E+03   -0.73737E-04   -0.82424E-04  3875   0.497E-02
   27 T=  3435. E= -.84154455E+03 F= -.84026199E+03 E0= -.84026199E+03  EK= 0.52842E+02 SP= -.68E+02 SK= 0.14E+02
       N       E                     dE             d eps       ncg     rms          rms(c)
DAV:   1    -0.838671640950E+03    0.15903E+01   -0.68879E-02  6651   0.188E+00    0.856E-02
RMM:   2    -0.838674716801E+03   -0.30759E-02   -0.31593E-02  4048   0.339E-01    0.413E-02
RMM:   3    -0.838675262631E+03   -0.54583E-03   -0.52333E-03  4192   0.133E-01    0.353E-02
RMM:   4    -0.838675349612E+03   -0.86981E-04   -0.97969E-04  3967   0.539E-02
   28 T=  3804. E= -.84156399E+03 F= -.83867535E+03 E0= -.83867535E+03  EK= 0.58510E+02 SP= -.72E+02 SK= 0.11E+02
       N       E                     dE             d eps       ncg     rms          rms(c)
DAV:   1    -0.836712629595E+03    0.19626E+01   -0.76054E-02  6672   0.197E+00    0.721E-02
RMM:   2    -0.836716125997E+03   -0.34964E-02   -0.35318E-02  4048   0.356E-01    0.507E-02
RMM:   3    -0.836716740651E+03   -0.61465E-03   -0.59153E-03  4199   0.139E-01    0.455E-02
RMM:   4    -0.836716841151E+03   -0.10050E-03   -0.11100E-03  4012   0.566E-02    0.418E-02
RMM:   5    -0.836716854871E+03   -0.13720E-04   -0.26499E-04  2799   0.277E-02
   29 T=  4132. E= -.84158281E+03 F= -.83671685E+03 E0= -.83671685E+03  EK= 0.63558E+02 SP= -.77E+02 SK= 0.82E+01
       N       E                     dE             d eps       ncg     rms          rms(c)
DAV:   1    -0.834358480747E+03    0.23584E+01   -0.72989E-02  6592   0.203E+00    0.123E-01
RMM:   2    -0.834362030543E+03   -0.35498E-02   -0.37866E-02  4048   0.362E-01    0.415E-02
RMM:   3    -0.834362714597E+03   -0.68405E-03   -0.65779E-03  4224   0.143E-01    0.305E-02
RMM:   4    -0.834362813217E+03   -0.98619E-04   -0.11400E-03  4009   0.565E-02    0.245E-02
RMM:   5    -0.834362830893E+03   -0.17677E-04   -0.25657E-04  2797   0.269E-02
   30 T=  4387. E= -.84159570E+03 F= -.83436283E+03 E0= -.83436283E+03  EK= 0.67486E+02 SP= -.80E+02 SK= 0.53E+01
       N       E                     dE             d eps       ncg     rms          rms(c)
DAV:   1    -0.831618668874E+03    0.27441E+01   -0.76743E-02  6608   0.206E+00    0.916E-02
RMM:   2    -0.831622439718E+03   -0.37708E-02   -0.38180E-02  4048   0.367E-01    0.464E-02
RMM:   3    -0.831623092891E+03   -0.65317E-03   -0.63432E-03  4227   0.141E-01    0.429E-02
RMM:   4    -0.831623195137E+03   -0.10225E-03   -0.11351E-03  4015   0.557E-02    0.407E-02
RMM:   5    -0.831623201623E+03   -0.64857E-05   -0.25120E-04  2774   0.267E-02
   31 T=  4541. E= -.84159667E+03 F= -.83162320E+03 E0= -.83162320E+03  EK= 0.69850E+02 SP= -.83E+02 SK= 0.29E+01
       N       E                     dE             d eps       ncg     rms          rms(c)
DAV:   1    -0.828541664700E+03    0.30815E+01   -0.85224E-02  6472   0.206E+00    0.957E-02
RMM:   2    -0.828545417838E+03   -0.37531E-02   -0.38505E-02  4048   0.373E-01    0.528E-02
RMM:   3    -0.828546065068E+03   -0.64723E-03   -0.62042E-03  4205   0.141E-01    0.441E-02
RMM:   4    -0.828546166438E+03   -0.10137E-03   -0.11323E-03  4004   0.561E-02    0.354E-02
RMM:   5    -0.828546185444E+03   -0.19007E-04   -0.26192E-04  2814   0.272E-02
   32 T=  4574. E= -.84158185E+03 F= -.82854619E+03 E0= -.82854619E+03  EK= 0.70359E+02 SP= -.85E+02 SK= 0.11E+01
       N       E                     dE             d eps       ncg     rms          rms(c)
DAV:   1    -0.825212635259E+03    0.33335E+01   -0.80407E-02  6496   0.203E+00    0.123E-01
RMM:   2    -0.825216469645E+03   -0.38344E-02   -0.39780E-02  4048   0.379E-01    0.416E-02
RMM:   3    -0.825217132874E+03   -0.66323E-03   -0.64091E-03  4213   0.143E-01    0.358E-02
RMM:   4    -0.825217231058E+03   -0.98184E-04   -0.11479E-03  4026   0.563E-02    0.306E-02
RMM:   5    -0.825217241634E+03   -0.10577E-04   -0.25498E-04  2804   0.270E-02
   33 T=  4483. E= -.84155071E+03 F= -.82521724E+03 E0= -.82521724E+03  EK= 0.68956E+02 SP= -.85E+02 SK= 0.18E+00
       N       E                     dE             d eps       ncg     rms          rms(c)
DAV:   1    -0.821747504694E+03    0.34697E+01   -0.71578E-02  6528   0.197E+00    0.910E-02
RMM:   2    -0.821751161563E+03   -0.36569E-02   -0.36940E-02  4048   0.372E-01    0.551E-02
RMM:   3    -0.821751766480E+03   -0.60492E-03   -0.58942E-03  4221   0.138E-01    0.476E-02
RMM:   4    -0.821751859642E+03   -0.93162E-04   -0.10672E-03  4005   0.544E-02    0.407E-02
RMM:   5    -0.821751869538E+03   -0.98957E-05   -0.25490E-04  2762   0.269E-02
   34 T=  4280. E= -.84150681E+03 F= -.82175187E+03 E0= -.82175187E+03  EK= 0.65830E+02 SP= -.86E+02 SK= 0.28E-01
       N       E                     dE             d eps       ncg     rms          rms(c)
DAV:   1    -0.818279267299E+03    0.34726E+01   -0.62984E-02  6656   0.188E+00    0.115E-01
RMM:   2    -0.818282460458E+03   -0.31932E-02   -0.33312E-02  4048   0.361E-01    0.467E-02
RMM:   3    -0.818283002012E+03   -0.54155E-03   -0.52482E-03  4201   0.132E-01    0.361E-02
RMM:   4    -0.818283082670E+03   -0.80659E-04   -0.94513E-04  3965   0.522E-02
   35 T=  3990. E= -.84145614E+03 F= -.81828308E+03 E0= -.81828308E+03  EK= 0.61376E+02 SP= -.85E+02 SK= 0.47E+00
       N       E                     dE             d eps       ncg     rms          rms(c)
DAV:   1    -0.814943133241E+03    0.33399E+01   -0.60035E-02  6736   0.178E+00    0.786E-02
RMM:   2    -0.814946118973E+03   -0.29857E-02   -0.30104E-02  4048   0.353E-01    0.588E-02
RMM:   3    -0.814946596002E+03   -0.47703E-03   -0.46481E-03  4210   0.127E-01    0.500E-02
RMM:   4    -0.814946670627E+03   -0.74624E-04   -0.86842E-04  3916   0.504E-02
   36 T=  3647. E= -.84140531E+03 F= -.81494667E+03 E0= -.81494667E+03  EK= 0.56099E+02 SP= -.84E+02 SK= 0.12E+01
       N       E                     dE             d eps       ncg     rms          rms(c)
DAV:   1    -0.811863143624E+03    0.30835E+01   -0.56739E-02  6816   0.167E+00    0.872E-02
RMM:   2    -0.811865795732E+03   -0.26521E-02   -0.27359E-02  4048   0.336E-01    0.542E-02
RMM:   3    -0.811866239149E+03   -0.44342E-03   -0.43257E-03  4195   0.122E-01    0.423E-02
RMM:   4    -0.811866307822E+03   -0.68674E-04   -0.81309E-04  3886   0.489E-02
   37 T=  3284. E= -.84135926E+03 F= -.81186631E+03 E0= -.81186631E+03  EK= 0.50510E+02 SP= -.82E+02 SK= 0.21E+01
       N       E                     dE             d eps       ncg     rms          rms(c)
DAV:   1    -0.809138930763E+03    0.27273E+01   -0.47897E-02  6897   0.157E+00    0.885E-02
RMM:   2    -0.809141365398E+03   -0.24346E-02   -0.24900E-02  4048   0.314E-01    0.410E-02
RMM:   3    -0.809141781823E+03   -0.41643E-03   -0.40650E-03  4221   0.116E-01    0.323E-02
RMM:   4    -0.809141844079E+03   -0.62255E-04   -0.72259E-04  3806   0.461E-02
   38 T=  2929. E= -.84132061E+03 F= -.80914184E+03 E0= -.80914184E+03  EK= 0.45048E+02 SP= -.80E+02 SK= 0.28E+01
       N       E                     dE             d eps       ncg     rms          rms(c)
DAV:   1    -0.806839427267E+03    0.23024E+01   -0.42964E-02  6811   0.146E+00    0.676E-02
RMM:   2    -0.806841449600E+03   -0.20223E-02   -0.20485E-02  4048   0.288E-01    0.417E-02
RMM:   3    -0.806841798756E+03   -0.34916E-03   -0.34341E-03  4232   0.107E-01    0.356E-02
RMM:   4    -0.806841852289E+03   -0.53532E-04   -0.62463E-04  3694   0.427E-02
   39 T=  2603. E= -.84128999E+03 F= -.80684185E+03 E0= -.80684185E+03  EK= 0.40033E+02 SP= -.78E+02 SK= 0.32E+01
       N       E                     dE             d eps       ncg     rms          rms(c)
DAV:   1    -0.804999297139E+03    0.18425E+01   -0.36735E-02  6945   0.137E+00    0.679E-02
RMM:   2    -0.805000938318E+03   -0.16412E-02   -0.17018E-02  4048   0.261E-01    0.391E-02
RMM:   3    -0.805001229725E+03   -0.29141E-03   -0.28654E-03  4232   0.979E-02    0.305E-02
RMM:   4    -0.805001271866E+03   -0.42142E-04   -0.50887E-04  3502   0.391E-02
   40 T=  2318. E= -.84126663E+03 F= -.80500127E+03 E0= -.80500127E+03  EK= 0.35658E+02 SP= -.75E+02 SK= 0.33E+01
       N       E                     dE             d eps       ncg     rms          rms(c)
DAV:   1    -0.803621536796E+03    0.13797E+01   -0.28654E-02  7123   0.130E+00    0.616E-02
RMM:   2    -0.803622946729E+03   -0.14099E-02   -0.14576E-02  4048   0.236E-01    0.323E-02
RMM:   3    -0.803623209717E+03   -0.26299E-03   -0.25946E-03  4266   0.906E-02    0.262E-02
RMM:   4    -0.803623246426E+03   -0.36709E-04   -0.45067E-04  3358   0.362E-02
   41 T=  2081. E= -.84124926E+03 F= -.80362325E+03 E0= -.80362325E+03  EK= 0.32011E+02 SP= -.73E+02 SK= 0.32E+01
       N       E                     dE             d eps       ncg     rms          rms(c)
DAV:   1    -0.802682543776E+03    0.94067E+00   -0.28928E-02  6902   0.126E+00    0.505E-02
RMM:   2    -0.802683786572E+03   -0.12428E-02   -0.12751E-02  4048   0.220E-01    0.326E-02
RMM:   3    -0.802684005642E+03   -0.21907E-03   -0.21601E-03  4244   0.848E-02    0.282E-02
RMM:   4    -0.802684036657E+03   -0.31015E-04   -0.39100E-04  3229   0.341E-02
   42 T=  1892. E= -.84123644E+03 F= -.80268404E+03 E0= -.80268404E+03  EK= 0.29097E+02 SP= -.70E+02 SK= 0.28E+01
       N       E                     dE             d eps       ncg     rms          rms(c)
DAV:   1    -0.802139395134E+03    0.54461E+00   -0.22147E-02  7088   0.122E+00    0.559E-02
RMM:   2    -0.802140471365E+03   -0.10762E-02   -0.11366E-02  4048   0.202E-01    0.295E-02
RMM:   3    -0.802140686097E+03   -0.21473E-03   -0.21201E-03  4293   0.804E-02    0.233E-02
RMM:   4    -0.802140714589E+03   -0.28492E-04   -0.35264E-04  3078   0.319E-02
   43 T=  1747. E= -.84122709E+03 F= -.80214071E+03 E0= -.80214071E+03  EK= 0.26870E+02 SP= -.68E+02 SK= 0.24E+01
       N       E                     dE             d eps       ncg     rms          rms(c)
DAV:   1    -0.801937424506E+03    0.20326E+00   -0.23101E-02  6947   0.121E+00    0.514E-02
RMM:   2    -0.801938513046E+03   -0.10885E-02   -0.11325E-02  4048   0.199E-01    0.276E-02
RMM:   3    -0.801938724308E+03   -0.21126E-03   -0.20880E-03  4285   0.799E-02    0.244E-02
RMM:   4    -0.801938751638E+03   -0.27330E-04   -0.35638E-04  3102   0.319E-02
   44 T=  1642. E= -.84122034E+03 F= -.80193875E+03 E0= -.80193875E+03  EK= 0.25256E+02 SP= -.66E+02 SK= 0.19E+01
       N       E                     dE             d eps       ncg     rms          rms(c)
DAV:   1    -0.802018282205E+03   -0.79558E-01   -0.21556E-02  7084   0.121E+00    0.477E-02
RMM:   2    -0.802019268032E+03   -0.98583E-03   -0.10230E-02  4048   0.192E-01    0.297E-02
RMM:   3    -0.802019454976E+03   -0.18694E-03   -0.18464E-03  4271   0.764E-02    0.250E-02
RMM:   4    -0.802019480036E+03   -0.25061E-04   -0.31878E-04  3025   0.307E-02
   45 T=  1572. E= -.84121574E+03 F= -.80201948E+03 E0= -.80201948E+03  EK= 0.24175E+02 SP= -.65E+02 SK= 0.13E+01
       N       E                     dE             d eps       ncg     rms          rms(c)
DAV:   1    -0.802324467528E+03   -0.30501E+00   -0.17513E-02  7084   0.122E+00    0.550E-02
RMM:   2    -0.802325373322E+03   -0.90579E-03   -0.97016E-03  4048   0.185E-01    0.276E-02
RMM:   3    -0.802325553729E+03   -0.18041E-03   -0.17858E-03  4266   0.747E-02    0.231E-02
RMM:   4    -0.802325576581E+03   -0.22852E-04   -0.30870E-04  2955   0.301E-02
   46 T=  1531. E= -.84121299E+03 F= -.80232558E+03 E0= -.80232558E+03  EK= 0.23550E+02 SP= -.63E+02 SK= 0.88E+00
       N       E                     dE             d eps       ncg     rms          rms(c)
DAV:   1    -0.802803715917E+03   -0.47816E+00   -0.17232E-02  7076   0.124E+00    0.455E-02
RMM:   2    -0.802804673434E+03   -0.95752E-03   -0.98512E-03  4050   0.184E-01    0.292E-02
RMM:   3    -0.802804858458E+03   -0.18502E-03   -0.18374E-03  4307   0.744E-02    0.257E-02
RMM:   4    -0.802804882026E+03   -0.23568E-04   -0.30899E-04  2970   0.296E-02
   47 T=  1515. E= -.84121190E+03 F= -.80280488E+03 E0= -.80280488E+03  EK= 0.23311E+02 SP= -.62E+02 SK= 0.50E+00
       N       E                     dE             d eps       ncg     rms          rms(c)
DAV:   1    -0.803411153813E+03   -0.60630E+00   -0.16980E-02  7137   0.126E+00    0.503E-02
RMM:   2    -0.803412079152E+03   -0.92534E-03   -0.97274E-03  4048   0.182E-01    0.305E-02
RMM:   3    -0.803412266929E+03   -0.18778E-03   -0.18634E-03  4318   0.745E-02    0.254E-02
RMM:   4    -0.803412290015E+03   -0.23086E-04   -0.30787E-04  2974   0.297E-02
   48 T=  1521. E= -.84121254E+03 F= -.80341229E+03 E0= -.80341229E+03  EK= 0.23403E+02 SP= -.61E+02 SK= 0.23E+00
       N       E                     dE             d eps       ncg     rms          rms(c)
DAV:   1    -0.804108961877E+03   -0.69669E+00   -0.17257E-02  7250   0.129E+00    0.516E-02
RMM:   2    -0.804109869064E+03   -0.90719E-03   -0.95445E-03  4048   0.182E-01    0.278E-02
RMM:   3    -0.804110038729E+03   -0.16966E-03   -0.16796E-03  4257   0.738E-02    0.243E-02
RMM:   4    -0.804110061578E+03   -0.22849E-04   -0.30445E-04  2959   0.299E-02
   49 T=  1546. E= -.84121474E+03 F= -.80411006E+03 E0= -.80411006E+03  EK= 0.23781E+02 SP= -.61E+02 SK= 0.63E-01
       N       E                     dE             d eps       ncg     rms          rms(c)
DAV:   1    -0.804866733688E+03   -0.75669E+00   -0.15959E-02  7101   0.131E+00    0.426E-02
RMM:   2    -0.804867661855E+03   -0.92817E-03   -0.94691E-03  4048   0.180E-01    0.296E-02
RMM:   3    -0.804867837608E+03   -0.17575E-03   -0.17469E-03  4290   0.729E-02    0.271E-02
RMM:   4    -0.804867861491E+03   -0.23883E-04   -0.30436E-04  2963   0.294E-02
   50 T=  1587. E= -.84121840E+03 F= -.80486786E+03 E0= -.80486786E+03  EK= 0.24410E+02 SP= -.61E+02 SK= 0.12E-02
       N       E                     dE             d eps       ncg     rms          rms(c)
DAV:   1    -0.805660703257E+03   -0.79287E+00   -0.20916E-02  7074   0.134E+00    0.511E-02
RMM:   2    -0.805661761920E+03   -0.10587E-02   -0.11068E-02  4049   0.191E-01    0.307E-02
RMM:   3    -0.805661972186E+03   -0.21027E-03   -0.20768E-03  4302   0.790E-02    0.260E-02
RMM:   4    -0.805661999528E+03   -0.27342E-04   -0.35054E-04  3098   0.317E-02
   51 T=  1643. E= -.84122353E+03 F= -.80566200E+03 E0= -.80566200E+03  EK= 0.25266E+02 SP= -.61E+02 SK= 0.28E-01
       N       E                     dE             d eps       ncg     rms          rms(c)
DAV:   1    -0.806472829393E+03   -0.81086E+00   -0.22567E-02  7098   0.137E+00    0.532E-02
RMM:   2    -0.806473955729E+03   -0.11263E-02   -0.11735E-02  4048   0.196E-01    0.277E-02
RMM:   3    -0.806474178822E+03   -0.22309E-03   -0.21990E-03  4334   0.811E-02    0.250E-02
RMM:   4    -0.806474207511E+03   -0.28689E-04   -0.36654E-04  3164   0.323E-02
   52 T=  1712. E= -.84122985E+03 F= -.80647421E+03 E0= -.80647421E+03  EK= 0.26329E+02 SP= -.61E+02 SK= 0.12E+00
       N       E                     dE             d eps       ncg     rms          rms(c)
DAV:   1    -0.807289408532E+03   -0.81523E+00   -0.25492E-02  7214   0.140E+00    0.433E-02
RMM:   2    -0.807290636578E+03   -0.12280E-02   -0.12481E-02  4048   0.203E-01    0.315E-02
RMM:   3    -0.807290871145E+03   -0.23457E-03   -0.23199E-03  4317   0.835E-02    0.294E-02
RMM:   4    -0.807290903810E+03   -0.32665E-04   -0.40222E-04  3252   0.336E-02
   53 T=  1793. E= -.84123723E+03 F= -.80729090E+03 E0= -.80729090E+03  EK= 0.27582E+02 SP= -.62E+02 SK= 0.27E+00
       N       E                     dE             d eps       ncg     rms          rms(c)
DAV:   1    -0.808100646968E+03   -0.80978E+00   -0.26793E-02  7057   0.143E+00    0.529E-02
RMM:   2    -0.808101919369E+03   -0.12724E-02   -0.13257E-02  4048   0.208E-01    0.319E-02
RMM:   3    -0.808102175529E+03   -0.25616E-03   -0.25181E-03  4324   0.867E-02    0.267E-02
RMM:   4    -0.808102209637E+03   -0.34109E-04   -0.42035E-04  3311   0.348E-02
   54 T=  1886. E= -.84124558E+03 F= -.80810221E+03 E0= -.80810221E+03  EK= 0.29011E+02 SP= -.63E+02 SK= 0.43E+00
       N       E                     dE             d eps       ncg     rms          rms(c)
DAV:   1    -0.808899372797E+03   -0.79720E+00   -0.26810E-02  7286   0.146E+00    0.555E-02
RMM:   2    -0.808900672824E+03   -0.13000E-02   -0.13504E-02  4048   0.211E-01    0.273E-02
RMM:   3    -0.808900923403E+03   -0.25058E-03   -0.24601E-03  4312   0.871E-02    0.248E-02
RMM:   4    -0.808900957826E+03   -0.34422E-04   -0.42652E-04  3342   0.350E-02
   55 T=  1989. E= -.84125473E+03 F= -.80890096E+03 E0= -.80890096E+03  EK= 0.30598E+02 SP= -.64E+02 SK= 0.59E+00
       N       E                     dE             d eps       ncg     rms          rms(c)
DAV:   1    -0.809679771282E+03   -0.77885E+00   -0.27051E-02  7094   0.149E+00    0.424E-02
RMM:   2    -0.809681121733E+03   -0.13505E-02   -0.13635E-02  4049   0.212E-01    0.309E-02
RMM:   3    -0.809681377844E+03   -0.25611E-03   -0.25204E-03  4317   0.872E-02    0.287E-02
RMM:   4    -0.809681415846E+03   -0.38002E-04   -0.44021E-04  3392   0.352E-02
   56 T=  2101. E= -.84126460E+03 F= -.80968142E+03 E0= -.80968142E+03  EK= 0.32322E+02 SP= -.65E+02 SK= 0.72E+00
       N       E                     dE             d eps       ncg     rms          rms(c)
DAV:   1    -0.810436350184E+03   -0.75497E+00   -0.28710E-02  7199   0.152E+00    0.517E-02
RMM:   2    -0.810437718698E+03   -0.13685E-02   -0.14147E-02  4048   0.216E-01    0.319E-02
RMM:   3    -0.810437985397E+03   -0.26670E-03   -0.26107E-03  4299   0.893E-02    0.261E-02
RMM:   4    -0.810438024876E+03   -0.39479E-04   -0.46207E-04  3414   0.363E-02
   57 T=  2220. E= -.84127515E+03 F= -.81043802E+03 E0= -.81043802E+03  EK= 0.34153E+02 SP= -.66E+02 SK= 0.80E+00
       N       E                     dE             d eps       ncg     rms          rms(c)
DAV:   1    -0.811162319542E+03   -0.72433E+00   -0.26546E-02  7326   0.156E+00    0.554E-02
RMM:   2    -0.811163780396E+03   -0.14609E-02   -0.15033E-02  4049   0.219E-01    0.272E-02
RMM:   3    -0.811164074835E+03   -0.29444E-03   -0.28874E-03  4344   0.915E-02    0.235E-02
RMM:   4    -0.811164117002E+03   -0.42167E-04   -0.49054E-04  3412   0.365E-02
   58 T=  2344. E= -.84128615E+03 F= -.81116412E+03 E0= -.81116412E+03  EK= 0.36053E+02 SP= -.67E+02 SK= 0.82E+00
       N       E                     dE             d eps       ncg     rms          rms(c)
DAV:   1    -0.811849317002E+03   -0.68524E+00   -0.33935E-02  7193   0.159E+00    0.438E-02
RMM:   2    -0.811850891197E+03   -0.15742E-02   -0.15844E-02  4048   0.229E-01    0.320E-02
RMM:   3    -0.811851185696E+03   -0.29450E-03   -0.28811E-03  4311   0.937E-02    0.294E-02
RMM:   4    -0.811851231285E+03   -0.45589E-04   -0.51113E-04  3505   0.380E-02
   59 T=  2468. E= -.84129734E+03 F= -.81185123E+03 E0= -.81185123E+03  EK= 0.37970E+02 SP= -.68E+02 SK= 0.78E+00
       N       E                     dE             d eps       ncg     rms          rms(c)
DAV:   1    -0.812487619147E+03   -0.63643E+00   -0.31863E-02  7238   0.162E+00    0.525E-02
RMM:   2    -0.812489206908E+03   -0.15878E-02   -0.16260E-02  4048   0.235E-01    0.343E-02
RMM:   3    -0.812489514547E+03   -0.30764E-03   -0.29973E-03  4313   0.960E-02    0.284E-02
RMM:   4    -0.812489560672E+03   -0.46125E-04   -0.52537E-04  3535   0.390E-02
   60 T=  2590. E= -.84130856E+03 F= -.81248956E+03 E0= -.81248956E+03  EK= 0.39842E+02 SP= -.69E+02 SK= 0.68E+00
       N       E                     dE             d eps       ncg     rms          rms(c)
DAV:   1    -0.813066174222E+03   -0.57666E+00   -0.34031E-02  7177   0.165E+00    0.615E-02
RMM:   2    -0.813067836830E+03   -0.16626E-02   -0.17071E-02  4048   0.242E-01    0.296E-02
RMM:   3    -0.813068151673E+03   -0.31484E-03   -0.30602E-03  4295   0.982E-02    0.249E-02
RMM:   4    -0.813068200668E+03   -0.48995E-04   -0.55157E-04  3583   0.400E-02
   61 T=  2704. E= -.84131922E+03 F= -.81306820E+03 E0= -.81306820E+03  EK= 0.41598E+02 SP= -.70E+02 SK= 0.54E+00
       N       E                     dE             d eps       ncg     rms          rms(c)
DAV:   1    -0.813574442765E+03   -0.50629E+00   -0.38261E-02  7043   0.168E+00    0.523E-02
RMM:   2    -0.813576268244E+03   -0.18255E-02   -0.18388E-02  4048   0.252E-01    0.338E-02
RMM:   3    -0.813576608482E+03   -0.34024E-03   -0.33148E-03  4295   0.101E-01    0.303E-02
RMM:   4    -0.813576662997E+03   -0.54515E-04   -0.59958E-04  3650   0.412E-02
   62 T=  2806. E= -.84132888E+03 F= -.81357666E+03 E0= -.81357666E+03  EK= 0.43163E+02 SP= -.71E+02 SK= 0.37E+00
       N       E                     dE             d eps       ncg     rms          rms(c)
DAV:   1    -0.814003970115E+03   -0.42736E+00   -0.41470E-02  7043   0.170E+00    0.602E-02
RMM:   2    -0.814005960250E+03   -0.19901E-02   -0.20288E-02  4048   0.264E-01    0.362E-02
RMM:   3    -0.814006348192E+03   -0.38794E-03   -0.37645E-03  4313   0.107E-01    0.295E-02
RMM:   4    -0.814006406948E+03   -0.58756E-04   -0.64380E-04  3675   0.429E-02
   63 T=  2891. E= -.84133714E+03 F= -.81400641E+03 E0= -.81400641E+03  EK= 0.44463E+02 SP= -.72E+02 SK= 0.21E+00
       N       E                     dE             d eps       ncg     rms          rms(c)
DAV:   1    -0.814349130709E+03   -0.34278E+00   -0.40916E-02  7152   0.172E+00    0.678E-02
RMM:   2    -0.814351246352E+03   -0.21156E-02   -0.21640E-02  4049   0.270E-01    0.326E-02
RMM:   3    -0.814351648071E+03   -0.40172E-03   -0.38934E-03  4290   0.109E-01    0.269E-02
RMM:   4    -0.814351710073E+03   -0.62002E-04   -0.68466E-04  3729   0.442E-02
   64 T=  2954. E= -.84134333E+03 F= -.81435171E+03 E0= -.81435171E+03  EK= 0.45434E+02 SP= -.73E+02 SK= 0.84E-01
       N       E                     dE             d eps       ncg     rms          rms(c)
DAV:   1    -0.814608141997E+03   -0.25649E+00   -0.43498E-02  6979   0.173E+00    0.560E-02
RMM:   2    -0.814610240847E+03   -0.20988E-02   -0.21142E-02  4048   0.274E-01    0.366E-02
RMM:   3    -0.814610618536E+03   -0.37769E-03   -0.36540E-03  4281   0.108E-01    0.328E-02
RMM:   4    -0.814610679729E+03   -0.61192E-04   -0.66669E-04  3703   0.440E-02
   65 T=  2992. E= -.84134727E+03 F= -.81461068E+03 E0= -.81461068E+03  EK= 0.46028E+02 SP= -.73E+02 SK= 0.11E-01
       N       E                     dE             d eps       ncg     rms          rms(c)
DAV:   1    -0.814782558436E+03   -0.17194E+00   -0.40010E-02  7107   0.172E+00    0.626E-02
RMM:   2    -0.814784617281E+03   -0.20588E-02   -0.20970E-02  4048   0.271E-01    0.373E-02
RMM:   3    -0.814785005797E+03   -0.38852E-03   -0.37613E-03  4292   0.108E-01    0.305E-02
RMM:   4    -0.814785067307E+03   -0.61510E-04   -0.67069E-04  3694   0.436E-02
   66 T=  3005. E= -.84134868E+03 F= -.81478507E+03 E0= -.81478507E+03  EK= 0.46217E+02 SP= -.73E+02 SK= 0.77E-02
       N       E                     dE             d eps       ncg     rms          rms(c)
DAV:   1    -0.814877868111E+03   -0.92862E-01   -0.39711E-02  7227   0.171E+00    0.704E-02
RMM:   2    -0.814879956660E+03   -0.20885E-02   -0.21321E-02  4048   0.274E-01    0.322E-02
RMM:   3    -0.814880342625E+03   -0.38596E-03   -0.37319E-03  4294   0.108E-01    0.267E-02
RMM:   4    -0.814880403273E+03   -0.60649E-04   -0.66470E-04  3702   0.438E-02
   67 T=  2990. E= -.84134761E+03 F= -.81488040E+03 E0= -.81488040E+03  EK= 0.45998E+02 SP= -.73E+02 SK= 0.78E-01
       N       E                     dE             d eps       ncg     rms          rms(c)
DAV:   1    -0.814902954590E+03   -0.22612E-01   -0.38794E-02  7148   0.169E+00    0.590E-02
RMM:   2    -0.814904939328E+03   -0.19847E-02   -0.19990E-02  4048   0.271E-01    0.363E-02
RMM:   3    -0.814905293902E+03   -0.35457E-03   -0.34422E-03  4283   0.105E-01    0.320E-02
RMM:   4    -0.814905350996E+03   -0.57094E-04   -0.62375E-04  3655   0.426E-02
   68 T=  2951. E= -.84134418E+03 F= -.81490535E+03 E0= -.81490535E+03  EK= 0.45391E+02 SP= -.72E+02 SK= 0.22E+00
       N       E                     dE             d eps       ncg     rms          rms(c)
DAV:   1    -0.814869872346E+03    0.35422E-01   -0.41252E-02  7012   0.167E+00    0.640E-02
RMM:   2    -0.814871841251E+03   -0.19689E-02   -0.20046E-02  4048   0.273E-01    0.379E-02
RMM:   3    -0.814872191224E+03   -0.34997E-03   -0.33823E-03  4266   0.105E-01    0.313E-02
RMM:   4    -0.814872248283E+03   -0.57059E-04   -0.62487E-04  3683   0.428E-02
   69 T=  2889. E= -.84133870E+03 F= -.81487225E+03 E0= -.81487225E+03  EK= 0.44442E+02 SP= -.71E+02 SK= 0.40E+00
       N       E                     dE             d eps       ncg     rms          rms(c)
DAV:   1    -0.814794203479E+03    0.77988E-01   -0.37769E-02  7022   0.164E+00    0.703E-02
RMM:   2    -0.814796189891E+03   -0.19864E-02   -0.20247E-02  4048   0.271E-01    0.342E-02
RMM:   3    -0.814796560294E+03   -0.37040E-03   -0.35951E-03  4300   0.105E-01    0.277E-02
RMM:   4    -0.814796616766E+03   -0.56473E-04   -0.62165E-04  3657   0.423E-02
   70 T=  2809. E= -.84133151E+03 F= -.81479662E+03 E0= -.81479662E+03  EK= 0.43212E+02 SP= -.70E+02 SK= 0.62E+00
       N       E                     dE             d eps       ncg     rms          rms(c)
DAV:   1    -0.814694665296E+03    0.10189E+00   -0.40984E-02  6846   0.160E+00    0.604E-02
RMM:   2    -0.814696589640E+03   -0.19243E-02   -0.19399E-02  4048   0.270E-01    0.380E-02
RMM:   3    -0.814696919820E+03   -0.33018E-03   -0.31992E-03  4255   0.103E-01    0.328E-02
RMM:   4    -0.814696973753E+03   -0.53934E-04   -0.59303E-04  3673   0.420E-02
   71 T=  2716. E= -.84132314E+03 F= -.81469697E+03 E0= -.81469697E+03  EK= 0.41777E+02 SP= -.69E+02 SK= 0.83E+00
       N       E                     dE             d eps       ncg     rms          rms(c)
DAV:   1    -0.814592455540E+03    0.10446E+00   -0.35973E-02  6852   0.156E+00    0.656E-02
RMM:   2    -0.814594245354E+03   -0.17898E-02   -0.18215E-02  4048   0.262E-01    0.380E-02
RMM:   3    -0.814594564631E+03   -0.31928E-03   -0.30972E-03  4273   0.998E-02    0.302E-02
RMM:   4    -0.814594615065E+03   -0.50434E-04   -0.55623E-04  3583   0.404E-02
   72 T=  2615. E= -.84131402E+03 F= -.81459462E+03 E0= -.81459462E+03  EK= 0.40217E+02 SP= -.68E+02 SK= 0.10E+01
       N       E                     dE             d eps       ncg     rms          rms(c)
DAV:   1    -0.814510930550E+03    0.83634E-01   -0.36210E-02  6944   0.152E+00    0.681E-02
RMM:   2    -0.814512741026E+03   -0.18105E-02   -0.18408E-02  4048   0.259E-01    0.351E-02
RMM:   3    -0.814513070777E+03   -0.32975E-03   -0.32073E-03  4285   0.996E-02    0.283E-02
RMM:   4    -0.814513121432E+03   -0.50656E-04   -0.56660E-04  3568   0.402E-02
   73 T=  2510. E= -.84130463E+03 F= -.81451312E+03 E0= -.81451312E+03  EK= 0.38614E+02 SP= -.67E+02 SK= 0.12E+01
       N       E                     dE             d eps       ncg     rms          rms(c)
DAV:   1    -0.814474912935E+03    0.38158E-01   -0.37026E-02  6920   0.148E+00    0.598E-02
RMM:   2    -0.814476592132E+03   -0.16792E-02   -0.16960E-02  4048   0.253E-01    0.378E-02
RMM:   3    -0.814476891007E+03   -0.29887E-03   -0.29148E-03  4286   0.961E-02    0.314E-02
RMM:   4    -0.814476937170E+03   -0.46163E-04   -0.51972E-04  3486   0.388E-02
   74 T=  2408. E= -.84129542E+03 F= -.81447694E+03 E0= -.81447694E+03  EK= 0.37042E+02 SP= -.65E+02 SK= 0.12E+01
       N       E                     dE             d eps       ncg     rms          rms(c)
DAV:   1    -0.814507920915E+03   -0.31030E-01   -0.34128E-02  6897   0.144E+00    0.634E-02
RMM:   2    -0.814509434240E+03   -0.15133E-02   -0.15463E-02  4048   0.244E-01    0.363E-02
RMM:   3    -0.814509694345E+03   -0.26010E-03   -0.25343E-03  4238   0.922E-02    0.291E-02
RMM:   4    -0.814509735424E+03   -0.41079E-04   -0.47227E-04  3449   0.377E-02
   75 T=  2312. E= -.84128669E+03 F= -.81450974E+03 E0= -.81450974E+03  EK= 0.35570E+02 SP= -.64E+02 SK= 0.13E+01
       N       E                     dE             d eps       ncg     rms          rms(c)
DAV:   1    -0.814630929689E+03   -0.12124E+00   -0.25945E-02  7115   0.141E+00    0.604E-02
RMM:   2    -0.814632380043E+03   -0.14504E-02   -0.14744E-02  4049   0.231E-01    0.339E-02
RMM:   3    -0.814632647069E+03   -0.26703E-03   -0.26274E-03  4292   0.891E-02    0.275E-02
RMM:   4    -0.814632686965E+03   -0.39895E-04   -0.45895E-04  3349   0.359E-02
   76 T=  2227. E= -.84127887E+03 F= -.81463269E+03 E0= -.81463269E+03  EK= 0.34248E+02 SP= -.62E+02 SK= 0.12E+01
       N       E                     dE             d eps       ncg     rms          rms(c)
DAV:   1    -0.814860262533E+03   -0.22762E+00   -0.30567E-02  6920   0.138E+00    0.547E-02
RMM:   2    -0.814861706316E+03   -0.14438E-02   -0.14654E-02  4048   0.230E-01    0.351E-02
RMM:   3    -0.814861968632E+03   -0.26232E-03   -0.25700E-03  4287   0.890E-02    0.295E-02
RMM:   4    -0.814862007331E+03   -0.38699E-04   -0.45133E-04  3356   0.360E-02
   77 T=  2153. E= -.84127227E+03 F= -.81486201E+03 E0= -.81486201E+03  EK= 0.33118E+02 SP= -.61E+02 SK= 0.11E+01
       N       E                     dE             d eps       ncg     rms          rms(c)
DAV:   1    -0.815205684073E+03   -0.34372E+00   -0.28234E-02  7011   0.136E+00    0.584E-02
RMM:   2    -0.815207005695E+03   -0.13216E-02   -0.13593E-02  4048   0.222E-01    0.326E-02
RMM:   3    -0.815207247919E+03   -0.24222E-03   -0.23695E-03  4273   0.864E-02    0.263E-02
RMM:   4    -0.815207283989E+03   -0.36070E-04   -0.42203E-04  3325   0.351E-02
   78 T=  2094. E= -.84126702E+03 F= -.81520728E+03 E0= -.81520728E+03  EK= 0.32204E+02 SP= -.59E+02 SK= 0.10E+01
       N       E                     dE             d eps       ncg     rms          rms(c)
DAV:   1    -0.815669263105E+03   -0.46202E+00   -0.27994E-02  6979   0.136E+00    0.546E-02
RMM:   2    -0.815670544589E+03   -0.12815E-02   -0.13112E-02  4048   0.219E-01    0.313E-02
RMM:   3    -0.815670776051E+03   -0.23146E-03   -0.22722E-03  4263   0.854E-02    0.271E-02
RMM:   4    -0.815670809555E+03   -0.33504E-04   -0.40631E-04  3292   0.347E-02
   79 T=  2049. E= -.84126324E+03 F= -.81567081E+03 E0= -.81567081E+03  EK= 0.31515E+02 SP= -.58E+02 SK= 0.88E+00
       N       E                     dE             d eps       ncg     rms          rms(c)
DAV:   1    -0.816246121732E+03   -0.57535E+00   -0.25275E-02  7022   0.135E+00    0.491E-02
RMM:   2    -0.816247317769E+03   -0.11960E-02   -0.12212E-02  4048   0.211E-01    0.331E-02
RMM:   3    -0.816247537316E+03   -0.21955E-03   -0.21625E-03  4272   0.825E-02    0.286E-02
RMM:   4    -0.816247569222E+03   -0.31905E-04   -0.38656E-04  3217   0.335E-02
   80 T=  2019. E= -.84126090E+03 F= -.81624757E+03 E0= -.81624757E+03  EK= 0.31051E+02 SP= -.57E+02 SK= 0.73E+00
       N       E                     dE             d eps       ncg     rms          rms(c)
DAV:   1    -0.816925168508E+03   -0.67763E+00   -0.24092E-02  7054   0.136E+00    0.565E-02
RMM:   2    -0.816926372325E+03   -0.12038E-02   -0.12550E-02  4048   0.210E-01    0.308E-02
RMM:   3    -0.816926599922E+03   -0.22760E-03   -0.22365E-03  4276   0.838E-02    0.259E-02
RMM:   4    -0.816926631608E+03   -0.31686E-04   -0.39531E-04  3267   0.340E-02
   81 T=  2002. E= -.84125996E+03 F= -.81692663E+03 E0= -.81692663E+03  EK= 0.30800E+02 SP= -.56E+02 SK= 0.58E+00
       N       E                     dE             d eps       ncg     rms          rms(c)
DAV:   1    -0.817690817441E+03   -0.76422E+00   -0.21657E-02  7062   0.137E+00    0.509E-02
RMM:   2    -0.817692031726E+03   -0.12143E-02   -0.12434E-02  4048   0.208E-01    0.299E-02
RMM:   3    -0.817692257239E+03   -0.22551E-03   -0.22239E-03  4285   0.831E-02    0.267E-02
RMM:   4    -0.817692290153E+03   -0.32915E-04   -0.40042E-04  3240   0.337E-02
   82 T=  1999. E= -.84126019E+03 F= -.81769229E+03 E0= -.81769229E+03  EK= 0.30745E+02 SP= -.55E+02 SK= 0.45E+00
       N       E                     dE             d eps       ncg     rms          rms(c)
DAV:   1    -0.818524632868E+03   -0.83238E+00   -0.24983E-02  6975   0.138E+00    0.488E-02
RMM:   2    -0.818525846890E+03   -0.12140E-02   -0.12448E-02  4048   0.210E-01    0.323E-02
RMM:   3    -0.818526063575E+03   -0.21668E-03   -0.21337E-03  4253   0.834E-02    0.287E-02
RMM:   4    -0.818526094851E+03   -0.31276E-04   -0.39147E-04  3261   0.341E-02
   83 T=  2006. E= -.84126154E+03 F= -.81852609E+03 E0= -.81852609E+03  EK= 0.30863E+02 SP= -.54E+02 SK= 0.33E+00
       N       E                     dE             d eps       ncg     rms          rms(c)
DAV:   1    -0.819406916882E+03   -0.88085E+00   -0.24080E-02  7014   0.140E+00    0.572E-02
RMM:   2    -0.819408191762E+03   -0.12749E-02   -0.13299E-02  4049   0.213E-01    0.302E-02
RMM:   3    -0.819408441932E+03   -0.25017E-03   -0.24603E-03  4310   0.862E-02    0.257E-02
RMM:   4    -0.819408475107E+03   -0.33174E-04   -0.41615E-04  3283   0.346E-02
   84 T=  2024. E= -.84126372E+03 F= -.81940848E+03 E0= -.81940848E+03  EK= 0.31129E+02 SP= -.53E+02 SK= 0.24E+00
       N       E                     dE             d eps       ncg     rms          rms(c)
DAV:   1    -0.820318957633E+03   -0.91052E+00   -0.28400E-02  7004   0.142E+00    0.505E-02
RMM:   2    -0.820320315770E+03   -0.13581E-02   -0.13895E-02  4048   0.219E-01    0.308E-02
RMM:   3    -0.820320559028E+03   -0.24326E-03   -0.23922E-03  4251   0.878E-02    0.285E-02
RMM:   4    -0.820320593822E+03   -0.34794E-04   -0.43609E-04  3391   0.360E-02
   85 T=  2049. E= -.84126656E+03 F= -.82032059E+03 E0= -.82032059E+03  EK= 0.31518E+02 SP= -.53E+02 SK= 0.17E+00
       N       E                     dE             d eps       ncg     rms          rms(c)
DAV:   1    -0.821243541017E+03   -0.92298E+00   -0.25389E-02  7041   0.144E+00    0.493E-02
RMM:   2    -0.821244898461E+03   -0.13574E-02   -0.13860E-02  4048   0.216E-01    0.328E-02
RMM:   3    -0.821245153901E+03   -0.25544E-03   -0.25143E-03  4286   0.875E-02    0.290E-02
RMM:   4    -0.821245191045E+03   -0.37144E-04   -0.44945E-04  3380   0.358E-02
   86 T=  2081. E= -.84126996E+03 F= -.82124519E+03 E0= -.82124519E+03  EK= 0.32004E+02 SP= -.52E+02 SK= 0.11E+00
       N       E                     dE             d eps       ncg     rms          rms(c)
DAV:   1    -0.822165459797E+03   -0.92031E+00   -0.28451E-02  7107   0.146E+00    0.580E-02
RMM:   2    -0.822166901689E+03   -0.14419E-02   -0.15008E-02  4048   0.223E-01    0.309E-02
RMM:   3    -0.822167177039E+03   -0.27535E-03   -0.26947E-03  4297   0.915E-02    0.269E-02
RMM:   4    -0.822167214496E+03   -0.37457E-04   -0.47157E-04  3462   0.369E-02
   87 T=  2117. E= -.84127375E+03 F= -.82216721E+03 E0= -.82216721E+03  EK= 0.32565E+02 SP= -.52E+02 SK= 0.72E-01
       N       E                     dE             d eps       ncg     rms          rms(c)
DAV:   1    -0.823072074011E+03   -0.90490E+00   -0.33058E-02  6956   0.148E+00    0.528E-02
RMM:   2    -0.823073590274E+03   -0.15163E-02   -0.15459E-02  4048   0.229E-01    0.300E-02
RMM:   3    -0.823073859330E+03   -0.26906E-03   -0.26194E-03  4263   0.923E-02    0.278E-02
RMM:   4    -0.823073899153E+03   -0.39823E-04   -0.47753E-04  3507   0.376E-02
   88 T=  2157. E= -.84127778E+03 F= -.82307390E+03 E0= -.82307390E+03  EK= 0.33176E+02 SP= -.51E+02 SK= 0.46E-01
       N       E                     dE             d eps       ncg     rms          rms(c)
DAV:   1    -0.823952567689E+03   -0.87871E+00   -0.29089E-02  6971   0.150E+00    0.494E-02
RMM:   2    -0.823954165201E+03   -0.15975E-02   -0.16245E-02  4050   0.226E-01    0.327E-02
RMM:   3    -0.823954469090E+03   -0.30389E-03   -0.29767E-03  4301   0.934E-02    0.291E-02
RMM:   4    -0.823954513293E+03   -0.44203E-04   -0.51985E-04  3483   0.377E-02
   89 T=  2198. E= -.84128201E+03 F= -.82395451E+03 E0= -.82395451E+03  EK= 0.33815E+02 SP= -.51E+02 SK= 0.30E-01
       N       E                     dE             d eps       ncg     rms          rms(c)
DAV:   1    -0.824798117416E+03   -0.84365E+00   -0.36668E-02  6870   0.151E+00    0.552E-02
RMM:   2    -0.824799738804E+03   -0.16214E-02   -0.16702E-02  4048   0.232E-01    0.322E-02
RMM:   3    -0.824800047404E+03   -0.30860E-03   -0.29981E-03  4292   0.953E-02    0.279E-02
RMM:   4    -0.824800090605E+03   -0.43201E-04   -0.52115E-04  3502   0.385E-02
   90 T=  2240. E= -.84128632E+03 F= -.82480009E+03 E0= -.82480009E+03  EK= 0.34460E+02 SP= -.51E+02 SK= 0.20E-01
       N       E                     dE             d eps       ncg     rms          rms(c)
DAV:   1    -0.825601037098E+03   -0.80099E+00   -0.34336E-02  6948   0.153E+00    0.538E-02
RMM:   2    -0.825602634179E+03   -0.15971E-02   -0.16323E-02  4048   0.231E-01    0.305E-02
RMM:   3    -0.825602929008E+03   -0.29483E-03   -0.28683E-03  4274   0.942E-02    0.271E-02
RMM:   4    -0.825602973225E+03   -0.44217E-04   -0.51969E-04  3500   0.384E-02
   91 T=  2281. E= -.84129050E+03 F= -.82560297E+03 E0= -.82560297E+03  EK= 0.35090E+02 SP= -.51E+02 SK= 0.15E-01
       N       E                     dE             d eps       ncg     rms          rms(c)
DAV:   1    -0.826354777921E+03   -0.75185E+00   -0.31214E-02  7182   0.154E+00    0.487E-02
RMM:   2    -0.826356413580E+03   -0.16357E-02   -0.16596E-02  4048   0.229E-01    0.327E-02
RMM:   3    -0.826356731469E+03   -0.31789E-03   -0.31165E-03  4303   0.943E-02    0.290E-02
RMM:   4    -0.826356776601E+03   -0.45133E-04   -0.52590E-04  3474   0.379E-02
   92 T=  2320. E= -.84129454E+03 F= -.82635678E+03 E0= -.82635678E+03  EK= 0.35684E+02 SP= -.51E+02 SK= 0.14E-01
       N       E                     dE             d eps       ncg     rms          rms(c)
DAV:   1    -0.827054378573E+03   -0.69765E+00   -0.35251E-02  7182   0.154E+00    0.550E-02
RMM:   2    -0.827055954774E+03   -0.15762E-02   -0.16239E-02  4048   0.232E-01    0.321E-02
RMM:   3    -0.827056252377E+03   -0.29760E-03   -0.28922E-03  4286   0.945E-02    0.272E-02
RMM:   4    -0.827056295035E+03   -0.42658E-04   -0.50658E-04  3498   0.383E-02
   93 T=  2355. E= -.84129828E+03 F= -.82705630E+03 E0= -.82705630E+03  EK= 0.36224E+02 SP= -.50E+02 SK= 0.15E-01
       N       E                     dE             d eps       ncg     rms          rms(c)
DAV:   1    -0.827695711257E+03   -0.63946E+00   -0.33316E-02  7139   0.155E+00    0.588E-02
RMM:   2    -0.827697376375E+03   -0.16651E-02   -0.17141E-02  4048   0.234E-01    0.287E-02
RMM:   3    -0.827697697776E+03   -0.32140E-03   -0.31361E-03  4300   0.968E-02    0.248E-02
RMM:   4    -0.827697744428E+03   -0.46652E-04   -0.54518E-04  3561   0.390E-02
   94 T=  2385. E= -.84130150E+03 F= -.82769774E+03 E0= -.82769774E+03  EK= 0.36692E+02 SP= -.50E+02 SK= 0.18E-01
       N       E                     dE             d eps       ncg     rms          rms(c)
DAV:   1    -0.828276775035E+03   -0.57908E+00   -0.37415E-02  6992   0.155E+00    0.479E-02
RMM:   2    -0.828278523823E+03   -0.17488E-02   -0.17690E-02  4049   0.238E-01    0.321E-02
RMM:   3    -0.828278851763E+03   -0.32794E-03   -0.32064E-03  4308   0.978E-02    0.288E-02
RMM:   4    -0.828278899461E+03   -0.47698E-04   -0.54637E-04  3580   0.392E-02
   95 T=  2410. E= -.84130413E+03 F= -.82827890E+03 E0= -.82827890E+03  EK= 0.37076E+02 SP= -.50E+02 SK= 0.24E-01
       N       E                     dE             d eps       ncg     rms          rms(c)
DAV:   1    -0.828797104459E+03   -0.51825E+00   -0.38305E-02  6958   0.154E+00    0.536E-02
RMM:   2    -0.828798792550E+03   -0.16881E-02   -0.17413E-02  4048   0.237E-01    0.328E-02
RMM:   3    -0.828799118127E+03   -0.32558E-03   -0.31651E-03  4285   0.976E-02    0.271E-02
RMM:   4    -0.828799164082E+03   -0.45955E-04   -0.54023E-04  3549   0.393E-02
   96 T=  2429. E= -.84130617E+03 F= -.82879916E+03 E0= -.82879916E+03  EK= 0.37363E+02 SP= -.50E+02 SK= 0.33E-01
       N       E                     dE             d eps       ncg     rms          rms(c)
DAV:   1    -0.829257425769E+03   -0.45831E+00   -0.35398E-02  7051   0.154E+00    0.591E-02
RMM:   2    -0.829259102981E+03   -0.16772E-02   -0.17332E-02  4048   0.236E-01    0.278E-02
RMM:   3    -0.829259427070E+03   -0.32409E-03   -0.31606E-03  4293   0.972E-02    0.241E-02
RMM:   4    -0.829259472778E+03   -0.45708E-04   -0.54047E-04  3551   0.390E-02
   97 T=  2441. E= -.84130753E+03 F= -.82925947E+03 E0= -.82925947E+03  EK= 0.37548E+02 SP= -.50E+02 SK= 0.45E-01
       N       E                     dE             d eps       ncg     rms          rms(c)
DAV:   1    -0.829660440291E+03   -0.40101E+00   -0.35694E-02  6918   0.153E+00    0.448E-02
RMM:   2    -0.829662103048E+03   -0.16628E-02   -0.16776E-02  4048   0.233E-01    0.308E-02
RMM:   3    -0.829662412548E+03   -0.30950E-03   -0.30248E-03  4280   0.953E-02    0.280E-02
RMM:   4    -0.829662459712E+03   -0.47165E-04   -0.53487E-04  3539   0.387E-02
   98 T=  2446. E= -.84130819E+03 F= -.82966246E+03 E0= -.82966246E+03  EK= 0.37630E+02 SP= -.49E+02 SK= 0.61E-01
       N       E                     dE             d eps       ncg     rms          rms(c)
DAV:   1    -0.830010538432E+03   -0.34813E+00   -0.34240E-02  7086   0.151E+00    0.516E-02
RMM:   2    -0.830012090213E+03   -0.15518E-02   -0.16025E-02  4048   0.228E-01    0.317E-02
RMM:   3    -0.830012393861E+03   -0.30365E-03   -0.29597E-03  4294   0.937E-02    0.260E-02
RMM:   4    -0.830012436474E+03   -0.42612E-04   -0.50338E-04  3492   0.379E-02
   99 T=  2445. E= -.84130818E+03 F= -.83001244E+03 E0= -.83001244E+03  EK= 0.37610E+02 SP= -.49E+02 SK= 0.79E-01
       N       E                     dE             d eps       ncg     rms          rms(c)
DAV:   1    -0.830313368258E+03   -0.30097E+00   -0.33952E-02  7000   0.150E+00    0.600E-02
RMM:   2    -0.830314925163E+03   -0.15569E-02   -0.16195E-02  4048   0.229E-01    0.253E-02
RMM:   3    -0.830315224925E+03   -0.29976E-03   -0.29172E-03  4280   0.942E-02    0.220E-02
RMM:   4    -0.830315268232E+03   -0.43307E-04   -0.51158E-04  3516   0.381E-02
  100 T=  2438. E= -.84130748E+03 F= -.83031527E+03 E0= -.83031527E+03  EK= 0.37497E+02 SP= -.49E+02 SK= 0.99E-01
       N       E                     dE             d eps       ncg     rms          rms(c)
DAV:   1    -0.830576363028E+03   -0.26114E+00   -0.34310E-02  6857   0.148E+00    0.418E-02
RMM:   2    -0.830577899907E+03   -0.15369E-02   -0.15461E-02  4048   0.227E-01    0.289E-02
RMM:   3    -0.830578169928E+03   -0.27002E-03   -0.26427E-03  4251   0.916E-02    0.270E-02
RMM:   4    -0.830578213851E+03   -0.43923E-04   -0.49089E-04  3502   0.376E-02
  101 T=  2425. E= -.84130620E+03 F= -.83057821E+03 E0= -.83057821E+03  EK= 0.37302E+02 SP= -.48E+02 SK= 0.12E+00
       N       E                     dE             d eps       ncg     rms          rms(c)
DAV:   1    -0.830808043038E+03   -0.22987E+00   -0.30909E-02  6992   0.146E+00    0.460E-02
RMM:   2    -0.830809564388E+03   -0.15213E-02   -0.15602E-02  4048   0.223E-01    0.331E-02
RMM:   3    -0.830809856033E+03   -0.29165E-03   -0.28553E-03  4272   0.921E-02    0.272E-02
RMM:   4    -0.830809899610E+03   -0.43577E-04   -0.50975E-04  3493   0.376E-02
  102 T=  2408. E= -.84130452E+03 F= -.83080990E+03 E0= -.83080990E+03  EK= 0.37039E+02 SP= -.48E+02 SK= 0.14E+00
       N       E                     dE             d eps       ncg     rms          rms(c)
DAV:   1    -0.831018471479E+03   -0.20862E+00   -0.36811E-02  6652   0.144E+00    0.660E-02
RMM:   2    -0.831020043983E+03   -0.15725E-02   -0.16616E-02  4048   0.232E-01    0.248E-02
RMM:   3    -0.831020345271E+03   -0.30129E-03   -0.29161E-03  4241   0.955E-02    0.201E-02
RMM:   4    -0.831020389592E+03   -0.44321E-04   -0.51709E-04  3570   0.388E-02
  103 T=  2388. E= -.84130243E+03 F= -.83102039E+03 E0= -.83102039E+03  EK= 0.36726E+02 SP= -.47E+02 SK= 0.15E+00
       N       E                     dE             d eps       ncg     rms          rms(c)
DAV:   1    -0.831218772442E+03   -0.19843E+00   -0.33989E-02  6894   0.143E+00    0.420E-02
RMM:   2    -0.831220289769E+03   -0.15173E-02   -0.15243E-02  4048   0.225E-01    0.277E-02
RMM:   3    -0.831220560690E+03   -0.27092E-03   -0.26626E-03  4262   0.907E-02    0.267E-02
RMM:   4    -0.831220605507E+03   -0.44817E-04   -0.48510E-04  3470   0.370E-02
  104 T=  2365. E= -.84130010E+03 F= -.83122061E+03 E0= -.83122061E+03  EK= 0.36384E+02 SP= -.47E+02 SK= 0.17E+00
       N       E                     dE             d eps       ncg     rms          rms(c)
DAV:   1    -0.831420115360E+03   -0.19955E+00   -0.34519E-02  6583   0.140E+00    0.322E-02
RMM:   2    -0.831421583963E+03   -0.14686E-02   -0.14799E-02  4048   0.223E-01    0.394E-02
RMM:   3    -0.831421845776E+03   -0.26181E-03   -0.25651E-03  4244   0.898E-02    0.377E-02
RMM:   4    -0.831421885989E+03   -0.40213E-04   -0.47415E-04  3471   0.367E-02
  105 T=  2343. E= -.84129783E+03 F= -.83142189E+03 E0= -.83142189E+03  EK= 0.36033E+02 SP= -.46E+02 SK= 0.17E+00
       N       E                     dE             d eps       ncg     rms          rms(c)
DAV:   1    -0.831633713240E+03   -0.21187E+00   -0.28988E-02  6835   0.138E+00    0.872E-02
RMM:   2    -0.831635001890E+03   -0.12886E-02   -0.14862E-02  4049   0.219E-01    0.358E-02
RMM:   3    -0.831635287932E+03   -0.28604E-03   -0.28460E-03  4251   0.918E-02    0.178E-02
RMM:   4    -0.831635330983E+03   -0.43051E-04   -0.48471E-04  3449   0.373E-02
  106 T=  2320. E= -.84129560E+03 F= -.83163533E+03 E0= -.83163533E+03  EK= 0.35692E+02 SP= -.46E+02 SK= 0.17E+00
       N       E                     dE             d eps       ncg     rms          rms(c)
DAV:   1    -0.831869298269E+03   -0.23401E+00   -0.33368E-02  6758   0.138E+00    0.578E-02
RMM:   2    -0.831870903486E+03   -0.16052E-02   -0.16225E-02  4049   0.227E-01    0.236E-02
RMM:   3    -0.831871176767E+03   -0.27328E-03   -0.27627E-03  4249   0.921E-02    0.256E-02
RMM:   4    -0.831871230070E+03   -0.53303E-04   -0.53182E-04  3540   0.380E-02
  107 T=  2300. E= -.84129355E+03 F= -.83187123E+03 E0= -.83187123E+03  EK= 0.35381E+02 SP= -.45E+02 SK= 0.17E+00
       N       E                     dE             d eps       ncg     rms          rms(c)
DAV:   1    -0.832136298549E+03   -0.26512E+00   -0.34035E-02  6662   0.136E+00    0.621E-02
RMM:   2    -0.832137637861E+03   -0.13393E-02   -0.14591E-02  4048   0.219E-01    0.551E-02
RMM:   3    -0.832137869291E+03   -0.23143E-03   -0.26095E-03  4267   0.874E-02    0.395E-02
RMM:   4    -0.832137902118E+03   -0.32827E-04   -0.50475E-04  3539   0.371E-02
  108 T=  2283. E= -.84129180E+03 F= -.83213790E+03 E0= -.83213790E+03  EK= 0.35113E+02 SP= -.44E+02 SK= 0.16E+00
       N       E                     dE             d eps       ncg     rms          rms(c)
DAV:   1    -0.832440455572E+03   -0.30259E+00   -0.38079E-02  6718   0.133E+00    0.136E-01
RMM:   2    -0.832441614858E+03   -0.11593E-02   -0.17036E-02  4048   0.235E-01    0.376E-02
RMM:   3    -0.832441931640E+03   -0.31678E-03   -0.32207E-03  4204   0.100E-01    0.160E-02
RMM:   4    -0.832441974005E+03   -0.42365E-04   -0.52911E-04  3529   0.402E-02
  109 T=  2269. E= -.84129052E+03 F= -.83244197E+03 E0= -.83244197E+03  EK= 0.34902E+02 SP= -.44E+02 SK= 0.15E+00
       N       E                     dE             d eps       ncg     rms          rms(c)
DAV:   1    -0.832786256041E+03   -0.34432E+00   -0.33487E-02  6635   0.133E+00    0.504E-02
RMM:   2    -0.832787726840E+03   -0.14708E-02   -0.14783E-02  4048   0.225E-01    0.281E-02
RMM:   3    -0.832787980299E+03   -0.25346E-03   -0.24924E-03  4226   0.891E-02    0.249E-02
RMM:   4    -0.832788023005E+03   -0.42707E-04   -0.47927E-04  3447   0.367E-02
  110 T=  2260. E= -.84128975E+03 F= -.83278802E+03 E0= -.83278802E+03  EK= 0.34756E+02 SP= -.43E+02 SK= 0.14E+00
       N       E                     dE             d eps       ncg     rms          rms(c)
DAV:   1    -0.833177031753E+03   -0.38905E+00   -0.30005E-02  6819   0.132E+00    0.441E-02
RMM:   2    -0.833178400808E+03   -0.13691E-02   -0.14017E-02  4048   0.215E-01    0.351E-02
RMM:   3    -0.833178649439E+03   -0.24863E-03   -0.24442E-03  4248   0.865E-02    0.298E-02
RMM:   4    -0.833178686026E+03   -0.36587E-04   -0.44076E-04  3321   0.352E-02
  111 T=  2255. E= -.84128950E+03 F= -.83317869E+03 E0= -.83317869E+03  EK= 0.34680E+02 SP= -.43E+02 SK= 0.12E+00
       N       E                     dE             d eps       ncg     rms          rms(c)
DAV:   1    -0.833613658262E+03   -0.43501E+00   -0.30396E-02  6771   0.131E+00    0.613E-02
RMM:   2    -0.833615018813E+03   -0.13606E-02   -0.14278E-02  4048   0.218E-01    0.292E-02
RMM:   3    -0.833615271170E+03   -0.25236E-03   -0.24582E-03  4243   0.876E-02    0.233E-02
RMM:   4    -0.833615308395E+03   -0.37225E-04   -0.44168E-04  3341   0.355E-02
  112 T=  2254. E= -.84128976E+03 F= -.83361531E+03 E0= -.83361531E+03  EK= 0.34675E+02 SP= -.42E+02 SK= 0.11E+00
       N       E                     dE             d eps       ncg     rms          rms(c)
DAV:   1    -0.834096307556E+03   -0.48104E+00   -0.30819E-02  6678   0.132E+00    0.476E-02
RMM:   2    -0.834097735697E+03   -0.14281E-02   -0.14417E-02  4048   0.219E-01    0.298E-02
RMM:   3    -0.834097987286E+03   -0.25159E-03   -0.24795E-03  4244   0.876E-02    0.272E-02
RMM:   4    -0.834098027060E+03   -0.39774E-04   -0.45631E-04  3380   0.357E-02
  113 T=  2259. E= -.84129049E+03 F= -.83409803E+03 E0= -.83409803E+03  EK= 0.34742E+02 SP= -.42E+02 SK= 0.98E-01
       N       E                     dE             d eps       ncg     rms          rms(c)
DAV:   1    -0.834624624532E+03   -0.52664E+00   -0.30292E-02  6665   0.131E+00    0.461E-02
RMM:   2    -0.834626001275E+03   -0.13767E-02   -0.14006E-02  4048   0.217E-01    0.331E-02
RMM:   3    -0.834626249699E+03   -0.24842E-03   -0.24281E-03  4228   0.866E-02    0.277E-02
RMM:   4    -0.834626287880E+03   -0.38181E-04   -0.43721E-04  3312   0.353E-02
  114 T=  2267. E= -.84129165E+03 F= -.83462629E+03 E0= -.83462629E+03  EK= 0.34877E+02 SP= -.42E+02 SK= 0.87E-01
       N       E                     dE             d eps       ncg     rms          rms(c)
DAV:   1    -0.835197438231E+03   -0.57119E+00   -0.31457E-02  6635   0.132E+00    0.675E-02
RMM:   2    -0.835198805614E+03   -0.13674E-02   -0.14553E-02  4048   0.220E-01    0.257E-02
RMM:   3    -0.835199066892E+03   -0.26128E-03   -0.25370E-03  4234   0.888E-02    0.204E-02
RMM:   4    -0.835199105181E+03   -0.38289E-04   -0.45212E-04  3354   0.360E-02
  115 T=  2280. E= -.84129329E+03 F= -.83519911E+03 E0= -.83519911E+03  EK= 0.35076E+02 SP= -.41E+02 SK= 0.79E-01
       N       E                     dE             d eps       ncg     rms          rms(c)
DAV:   1    -0.835812271666E+03   -0.61320E+00   -0.32699E-02  6553   0.133E+00    0.430E-02
RMM:   2    -0.835813727803E+03   -0.14561E-02   -0.14651E-02  4048   0.221E-01    0.303E-02
RMM:   3    -0.835813977323E+03   -0.24952E-03   -0.24522E-03  4216   0.882E-02    0.279E-02
RMM:   4    -0.835814017682E+03   -0.40359E-04   -0.45680E-04  3423   0.362E-02
  116 T=  2297. E= -.84129529E+03 F= -.83581402E+03 E0= -.83581402E+03  EK= 0.35330E+02 SP= -.41E+02 SK= 0.73E-01
       N       E                     dE             d eps       ncg     rms          rms(c)
DAV:   1    -0.836465534012E+03   -0.65156E+00   -0.33265E-02  6566   0.134E+00    0.432E-02
RMM:   2    -0.836466928859E+03   -0.13948E-02   -0.14231E-02  4048   0.219E-01    0.349E-02
RMM:   3    -0.836467178741E+03   -0.24988E-03   -0.24329E-03  4219   0.878E-02    0.296E-02
RMM:   4    -0.836467217401E+03   -0.38660E-04   -0.45059E-04  3385   0.361E-02
  117 T=  2316. E= -.84129778E+03 F= -.83646722E+03 E0= -.83646722E+03  EK= 0.35631E+02 SP= -.41E+02 SK= 0.70E-01
       N       E                     dE             d eps       ncg     rms          rms(c)
DAV:   1    -0.837150837159E+03   -0.68366E+00   -0.32463E-02  6558   0.135E+00    0.677E-02
RMM:   2    -0.837152329007E+03   -0.14918E-02   -0.15891E-02  4048   0.224E-01    0.258E-02
RMM:   3    -0.837152621210E+03   -0.29220E-03   -0.28304E-03  4236   0.927E-02    0.198E-02
RMM:   4    -0.837152665558E+03   -0.44348E-04   -0.50933E-04  3470   0.377E-02
  118 T=  2338. E= -.84130065E+03 F= -.83715267E+03 E0= -.83715267E+03  EK= 0.35963E+02 SP= -.40E+02 SK= 0.70E-01
       N       E                     dE             d eps       ncg     rms          rms(c)
DAV:   1    -0.837859722261E+03   -0.70710E+00   -0.38094E-02  6518   0.137E+00    0.418E-02
RMM:   2    -0.837861290326E+03   -0.15681E-02   -0.15767E-02  4048   0.228E-01    0.291E-02
RMM:   3    -0.837861563189E+03   -0.27286E-03   -0.26747E-03  4221   0.921E-02    0.286E-02
RMM:   4    -0.837861609459E+03   -0.46269E-04   -0.50427E-04  3487   0.379E-02
  119 T=  2361. E= -.84130378E+03 F= -.83786161E+03 E0= -.83786161E+03  EK= 0.36310E+02 SP= -.40E+02 SK= 0.74E-01
       N       E                     dE             d eps       ncg     rms          rms(c)
DAV:   1    -0.838580994309E+03   -0.71943E+00   -0.32862E-02  6689   0.139E+00    0.339E-02
RMM:   2    -0.838582483614E+03   -0.14893E-02   -0.15015E-02  4048   0.222E-01    0.389E-02
RMM:   3    -0.838582755422E+03   -0.27181E-03   -0.26603E-03  4246   0.901E-02    0.363E-02
RMM:   4    -0.838582796030E+03   -0.40608E-04   -0.47415E-04  3425   0.367E-02
  120 T=  2383. E= -.84130707E+03 F= -.83858280E+03 E0= -.83858280E+03  EK= 0.36652E+02 SP= -.39E+02 SK= 0.82E-01
       N       E                     dE             d eps       ncg     rms          rms(c)
DAV:   1    -0.839301595577E+03   -0.71884E+00   -0.36229E-02  6486   0.140E+00    0.866E-02
RMM:   2    -0.839303015549E+03   -0.14200E-02   -0.16072E-02  4048   0.230E-01    0.336E-02
RMM:   3    -0.839303307664E+03   -0.29212E-03   -0.28432E-03  4205   0.954E-02    0.186E-02
RMM:   4    -0.839303352137E+03   -0.44473E-04   -0.50491E-04  3515   0.390E-02
  121 T=  2403. E= -.84131032E+03 F= -.83930335E+03 E0= -.83930335E+03  EK= 0.36968E+02 SP= -.39E+02 SK= 0.93E-01
       N       E                     dE             d eps       ncg     rms          rms(c)
DAV:   1    -0.840007831427E+03   -0.70452E+00   -0.32928E-02  6787   0.143E+00    0.527E-02
RMM:   2    -0.840009460507E+03   -0.16291E-02   -0.16457E-02  4048   0.229E-01    0.257E-02
RMM:   3    -0.840009739704E+03   -0.27920E-03   -0.27819E-03  4226   0.936E-02    0.268E-02
RMM:   4    -0.840009792843E+03   -0.53139E-04   -0.54136E-04  3544   0.387E-02
  122 T=  2421. E= -.84131321E+03 F= -.84000979E+03 E0= -.84000979E+03  EK= 0.37236E+02 SP= -.39E+02 SK= 0.11E+00
       N       E                     dE             d eps       ncg     rms          rms(c)
DAV:   1    -0.840687415770E+03   -0.67768E+00   -0.36027E-02  6611   0.144E+00    0.540E-02
RMM:   2    -0.840688915150E+03   -0.14994E-02   -0.15795E-02  4048   0.229E-01    0.592E-02
RMM:   3    -0.840689162278E+03   -0.24713E-03   -0.26429E-03  4218   0.918E-02    0.525E-02
RMM:   4    -0.840689183185E+03   -0.20907E-04   -0.57553E-04  3730   0.402E-02
  123 T=  2434. E= -.84131555E+03 F= -.84068918E+03 E0= -.84068918E+03  EK= 0.37436E+02 SP= -.38E+02 SK= 0.13E+00
       N       E                     dE             d eps       ncg     rms          rms(c)
DAV:   1    -0.841328861684E+03   -0.63970E+00   -0.37635E-02  6510   0.145E+00    0.129E-01
RMM:   2    -0.841330166322E+03   -0.13046E-02   -0.17812E-02  4048   0.239E-01    0.391E-02
RMM:   3    -0.841330493326E+03   -0.32700E-03   -0.33133E-03  4171   0.102E-01    0.152E-02
RMM:   4    -0.841330542819E+03   -0.49493E-04   -0.57183E-04  3630   0.418E-02
  124 T=  2441. E= -.84131729E+03 F= -.84133054E+03 E0= -.84133054E+03  EK= 0.37554E+02 SP= -.38E+02 SK= 0.15E+00
       N       E                     dE             d eps       ncg     rms          rms(c)
DAV:   1    -0.841923584854E+03   -0.59309E+00   -0.40945E-02  6512   0.147E+00    0.564E-02
RMM:   2    -0.841925373541E+03   -0.17887E-02   -0.17998E-02  4048   0.242E-01    0.274E-02
RMM:   3    -0.841925682219E+03   -0.30868E-03   -0.30208E-03  4232   0.979E-02    0.260E-02
RMM:   4    -0.841925732775E+03   -0.50557E-04   -0.56451E-04  3599   0.401E-02
  125 T=  2443. E= -.84131824E+03 F= -.84192573E+03 E0= -.84192573E+03  EK= 0.37579E+02 SP= -.37E+02 SK= 0.18E+00
       N       E                     dE             d eps       ncg     rms          rms(c)
DAV:   1    -0.842468293432E+03   -0.54261E+00   -0.36202E-02  6579   0.147E+00    0.452E-02
RMM:   2    -0.842469939977E+03   -0.16465E-02   -0.16785E-02  4048   0.231E-01    0.364E-02
RMM:   3    -0.842470239807E+03   -0.29983E-03   -0.29210E-03  4234   0.945E-02    0.310E-02
RMM:   4    -0.842470287137E+03   -0.47331E-04   -0.53636E-04  3515   0.387E-02
  126 T=  2438. E= -.84131847E+03 F= -.84247029E+03 E0= -.84247029E+03  EK= 0.37508E+02 SP= -.37E+02 SK= 0.21E+00
       N       E                     dE             d eps       ncg     rms          rms(c)
DAV:   1    -0.842961445887E+03   -0.49121E+00   -0.33681E-02  6734   0.147E+00    0.707E-02
RMM:   2    -0.842963074620E+03   -0.16287E-02   -0.17443E-02  4048   0.233E-01    0.295E-02
RMM:   3    -0.842963385274E+03   -0.31065E-03   -0.30033E-03  4226   0.968E-02    0.233E-02
RMM:   4    -0.842963430767E+03   -0.45493E-04   -0.54075E-04  3534   0.394E-02
  127 T=  2428. E= -.84131790E+03 F= -.84296343E+03 E0= -.84296343E+03  EK= 0.37343E+02 SP= -.36E+02 SK= 0.24E+00
       N       E                     dE             d eps       ncg     rms          rms(c)
DAV:   1    -0.843405907328E+03   -0.44252E+00   -0.35014E-02  6713   0.148E+00    0.412E-02
RMM:   2    -0.843407504520E+03   -0.15972E-02   -0.16040E-02  4048   0.231E-01    0.332E-02
RMM:   3    -0.843407774006E+03   -0.26949E-03   -0.26480E-03  4232   0.926E-02    0.323E-02
RMM:   4    -0.843407820042E+03   -0.46037E-04   -0.50542E-04  3498   0.381E-02
  128 T=  2411. E= -.84131657E+03 F= -.84340782E+03 E0= -.84340782E+03  EK= 0.37093E+02 SP= -.35E+02 SK= 0.27E+00
       N       E                     dE             d eps       ncg     rms          rms(c)
DAV:   1    -0.843807427709E+03   -0.39965E+00   -0.30758E-02  6780   0.147E+00    0.296E-02
RMM:   2    -0.843808938190E+03   -0.15105E-02   -0.15212E-02  4048   0.223E-01    0.489E-02
RMM:   3    -0.843809200064E+03   -0.26187E-03   -0.25567E-03  4220   0.902E-02    0.498E-02
RMM:   4    -0.843809248660E+03   -0.48596E-04   -0.50104E-04  3482   0.376E-02
  129 T=  2391. E= -.84131479E+03 F= -.84380925E+03 E0= -.84380925E+03  EK= 0.36772E+02 SP= -.35E+02 SK= 0.29E+00
       N       E                     dE             d eps       ncg     rms          rms(c)
DAV:   1    -0.844173909618E+03   -0.36471E+00   -0.29465E-02  6875   0.147E+00    0.450E-02
RMM:   2    -0.844175420570E+03   -0.15110E-02   -0.15284E-02  4048   0.221E-01    0.698E-02
RMM:   3    -0.844175711624E+03   -0.29105E-03   -0.27064E-03  4248   0.914E-02    0.817E-02
RMM:   4    -0.844175766225E+03   -0.54601E-04   -0.53457E-04  3518   0.385E-02
  130 T=  2366. E= -.84131271E+03 F= -.84417577E+03 E0= -.84417577E+03  EK= 0.36397E+02 SP= -.34E+02 SK= 0.31E+00
       N       E                     dE             d eps       ncg     rms          rms(c)
DAV:   1    -0.844514631701E+03   -0.33892E+00   -0.32290E-02  6822   0.147E+00    0.112E-01
RMM:   2    -0.844516063838E+03   -0.14321E-02   -0.14999E-02  4049   0.221E-01    0.439E-02
RMM:   3    -0.844516292454E+03   -0.22862E-03   -0.24663E-03  4204   0.890E-02    0.277E-02
RMM:   4    -0.844516340095E+03   -0.47641E-04   -0.50029E-04  3556   0.377E-02
  131 T=  2340. E= -.84131010E+03 F= -.84451634E+03 E0= -.84451634E+03  EK= 0.35990E+02 SP= -.33E+02 SK= 0.31E+00
       N       E                     dE             d eps       ncg     rms          rms(c)
DAV:   1    -0.844838817154E+03   -0.32252E+00   -0.28778E-02  6736   0.144E+00    0.157E-01
RMM:   2    -0.844840034392E+03   -0.12172E-02   -0.18499E-02  4048   0.238E-01    0.590E-02
RMM:   3    -0.844840350370E+03   -0.31598E-03   -0.33019E-03  4159   0.103E-01    0.271E-02
RMM:   4    -0.844840391013E+03   -0.40642E-04   -0.56937E-04  3648   0.418E-02
  132 T=  2312. E= -.84130739E+03 F= -.84484039E+03 E0= -.84484039E+03  EK= 0.35569E+02 SP= -.32E+02 SK= 0.31E+00
       N       E                     dE             d eps       ncg     rms          rms(c)
DAV:   1    -0.845154112176E+03   -0.31376E+00   -0.32873E-02  6659   0.144E+00    0.369E-02
RMM:   2    -0.845155648702E+03   -0.15365E-02   -0.15489E-02  4048   0.225E-01    0.350E-02
RMM:   3    -0.845155915046E+03   -0.26634E-03   -0.25723E-03  4233   0.910E-02    0.327E-02
RMM:   4    -0.845155958466E+03   -0.43421E-04   -0.48621E-04  3494   0.375E-02
  133 T=  2285. E= -.84130480E+03 F= -.84515596E+03 E0= -.84515596E+03  EK= 0.35153E+02 SP= -.32E+02 SK= 0.31E+00
       N       E                     dE             d eps       ncg     rms          rms(c)
DAV:   1    -0.845467917067E+03   -0.31200E+00   -0.31692E-02  6691   0.142E+00    0.483E-02
RMM:   2    -0.845469376336E+03   -0.14593E-02   -0.15150E-02  4048   0.221E-01    0.341E-02
RMM:   3    -0.845469638311E+03   -0.26197E-03   -0.25377E-03  4243   0.902E-02    0.287E-02
RMM:   4    -0.845469677919E+03   -0.39608E-04   -0.47028E-04  3455   0.370E-02
  134 T=  2260. E= -.84130252E+03 F= -.84546968E+03 E0= -.84546968E+03  EK= 0.34757E+02 SP= -.31E+02 SK= 0.29E+00
       N       E                     dE             d eps       ncg     rms          rms(c)
DAV:   1    -0.845784112136E+03   -0.31447E+00   -0.31185E-02  6641   0.142E+00    0.643E-02
RMM:   2    -0.845785622151E+03   -0.15100E-02   -0.15695E-02  4048   0.223E-01    0.210E-02
RMM:   3    -0.845785887118E+03   -0.26497E-03   -0.25690E-03  4210   0.916E-02    0.206E-02
RMM:   4    -0.845785929212E+03   -0.42095E-04   -0.49071E-04  3492   0.378E-02
  135 T=  2236. E= -.84130049E+03 F= -.84578593E+03 E0= -.84578593E+03  EK= 0.34396E+02 SP= -.30E+02 SK= 0.27E+00
       N       E                     dE             d eps       ncg     rms          rms(c)
DAV:   1    -0.846104765465E+03   -0.31888E+00   -0.30592E-02  6705   0.140E+00    0.407E-02
RMM:   2    -0.846106224779E+03   -0.14593E-02   -0.14675E-02  4048   0.217E-01    0.281E-02
RMM:   3    -0.846106471212E+03   -0.24643E-03   -0.24132E-03  4210   0.885E-02    0.270E-02
RMM:   4    -0.846106514165E+03   -0.42953E-04   -0.47425E-04  3463   0.368E-02
  136 T=  2215. E= -.84129879E+03 F= -.84610651E+03 E0= -.84610651E+03  EK= 0.34078E+02 SP= -.30E+02 SK= 0.24E+00
       N       E                     dE             d eps       ncg     rms          rms(c)
DAV:   1    -0.846429232905E+03   -0.32276E+00   -0.30962E-02  6521   0.139E+00    0.416E-02
RMM:   2    -0.846430669079E+03   -0.14362E-02   -0.14768E-02  4048   0.217E-01    0.344E-02
RMM:   3    -0.846430923853E+03   -0.25477E-03   -0.24733E-03  4221   0.891E-02    0.299E-02
RMM:   4    -0.846430960661E+03   -0.36809E-04   -0.46438E-04  3449   0.366E-02
  137 T=  2198. E= -.84129753E+03 F= -.84643096E+03 E0= -.84643096E+03  EK= 0.33808E+02 SP= -.29E+02 SK= 0.21E+00
       N       E                     dE             d eps       ncg     rms          rms(c)
DAV:   1    -0.846755205241E+03   -0.32428E+00   -0.33179E-02  6601   0.138E+00    0.768E-02
RMM:   2    -0.846756652468E+03   -0.14472E-02   -0.15937E-02  4048   0.223E-01    0.216E-02
RMM:   3    -0.846756933817E+03   -0.28135E-03   -0.26953E-03  4200   0.932E-02    0.160E-02
RMM:   4    -0.846756976801E+03   -0.42984E-04   -0.49499E-04  3495   0.383E-02
  138 T=  2184. E= -.84129655E+03 F= -.84675698E+03 E0= -.84675698E+03  EK= 0.33589E+02 SP= -.28E+02 SK= 0.17E+00
[...]
RMM:   4    -0.834572750659E+03   -0.51376E-04   -0.56575E-04  3621   0.403E-02
  265 T=  2460. E= -.84132584E+03 F= -.83457275E+03 E0= -.83457275E+03  EK= 0.37840E+02 SP= -.45E+02 SK= 0.44E+00
       N       E                     dE             d eps       ncg     rms          rms(c)
DAV:   1    -0.834964051138E+03   -0.39135E+00   -0.46099E-02  6583   0.152E+00    0.685E-02
RMM:   2    -0.834965792586E+03   -0.17414E-02   -0.18260E-02  4048   0.245E-01    0.221E-02
RMM:   3    -0.834966110729E+03   -0.31814E-03   -0.30502E-03  4219   0.994E-02    0.186E-02
RMM:   4    -0.834966160967E+03   -0.50238E-04   -0.55962E-04  3598   0.406E-02
  266 T=  2424. E= -.84132276E+03 F= -.83496616E+03 E0= -.83496616E+03  EK= 0.37281E+02 SP= -.44E+02 SK= 0.49E+00
       N       E                     dE             d eps       ncg     rms          rms(c)
DAV:   1    -0.835345108537E+03   -0.37900E+00   -0.37862E-02  6878   0.152E+00    0.375E-02
RMM:   2    -0.835346778837E+03   -0.16703E-02   -0.16745E-02  4048   0.233E-01    0.304E-02
RMM:   3    -0.835347074804E+03   -0.29597E-03   -0.28908E-03  4251   0.943E-02    0.283E-02
RMM:   4    -0.835347125612E+03   -0.50808E-04   -0.53554E-04  3540   0.385E-02
  267 T=  2385. E= -.84131952E+03 F= -.83534713E+03 E0= -.83534713E+03  EK= 0.36686E+02 SP= -.43E+02 SK= 0.52E+00
       N       E                     dE             d eps       ncg     rms          rms(c)
DAV:   1    -0.835719998279E+03   -0.37292E+00   -0.36428E-02  6875   0.151E+00    0.356E-02
RMM:   2    -0.835721613464E+03   -0.16152E-02   -0.16411E-02  4048   0.229E-01    0.407E-02
RMM:   3    -0.835721906279E+03   -0.29282E-03   -0.28637E-03  4269   0.937E-02    0.360E-02
RMM:   4    -0.835721949064E+03   -0.42785E-04   -0.51344E-04  3515   0.381E-02
  268 T=  2345. E= -.84131632E+03 F= -.83572195E+03 E0= -.83572195E+03  EK= 0.36077E+02 SP= -.42E+02 SK= 0.54E+00
       N       E                     dE             d eps       ncg     rms          rms(c)
DAV:   1    -0.836094452362E+03   -0.37255E+00   -0.33423E-02  7033   0.150E+00    0.988E-02
RMM:   2    -0.836095790245E+03   -0.13379E-02   -0.15693E-02  4048   0.225E-01    0.302E-02
RMM:   3    -0.836096077264E+03   -0.28702E-03   -0.28701E-03  4214   0.947E-02    0.111E-02
RMM:   4    -0.836096124524E+03   -0.47261E-04   -0.51252E-04  3532   0.392E-02
  269 T=  2306. E= -.84131308E+03 F= -.83609612E+03 E0= -.83609612E+03  EK= 0.35476E+02 SP= -.41E+02 SK= 0.54E+00
       N       E                     dE             d eps       ncg     rms          rms(c)
DAV:   1    -0.836471907421E+03   -0.37583E+00   -0.28360E-02  7054   0.150E+00    0.429E-02
RMM:   2    -0.836473387447E+03   -0.14800E-02   -0.14917E-02  4048   0.219E-01    0.297E-02
RMM:   3    -0.836473632956E+03   -0.24551E-03   -0.25065E-03  4248   0.890E-02    0.292E-02
RMM:   4    -0.836473683021E+03   -0.50064E-04   -0.48747E-04  3480   0.368E-02
  270 T=  2269. E= -.84130992E+03 F= -.83647368E+03 E0= -.83647368E+03  EK= 0.34901E+02 SP= -.40E+02 SK= 0.52E+00
       N       E                     dE             d eps       ncg     rms          rms(c)
DAV:   1    -0.836855637461E+03   -0.38200E+00   -0.33035E-02  6982   0.149E+00    0.522E-02
RMM:   2    -0.836857021626E+03   -0.13842E-02   -0.14531E-02  4048   0.217E-01    0.566E-02
RMM:   3    -0.836857260872E+03   -0.23925E-03   -0.25262E-03  4258   0.881E-02    0.468E-02
RMM:   4    -0.836857284696E+03   -0.23824E-04   -0.52147E-04  3606   0.385E-02
  271 T=  2234. E= -.84130699E+03 F= -.83685728E+03 E0= -.83685728E+03  EK= 0.34368E+02 SP= -.39E+02 SK= 0.49E+00
       N       E                     dE             d eps       ncg     rms          rms(c)
DAV:   1    -0.837247043813E+03   -0.38978E+00   -0.35226E-02  6846   0.149E+00    0.127E-01
RMM:   2    -0.837248308223E+03   -0.12644E-02   -0.17230E-02  4048   0.231E-01    0.370E-02
RMM:   3    -0.837248624840E+03   -0.31662E-03   -0.32228E-03  4201   0.100E-01    0.142E-02
RMM:   4    -0.837248673358E+03   -0.48518E-04   -0.56273E-04  3614   0.410E-02
  272 T=  2203. E= -.84130434E+03 F= -.83724867E+03 E0= -.83724867E+03  EK= 0.33889E+02 SP= -.38E+02 SK= 0.45E+00
       N       E                     dE             d eps       ncg     rms          rms(c)
DAV:   1    -0.837646133459E+03   -0.39751E+00   -0.35081E-02  6819   0.149E+00    0.463E-02
RMM:   2    -0.837647747194E+03   -0.16137E-02   -0.16194E-02  4048   0.228E-01    0.229E-02
RMM:   3    -0.837648034446E+03   -0.28725E-03   -0.27999E-03  4249   0.934E-02    0.211E-02
RMM:   4    -0.837648083514E+03   -0.49069E-04   -0.52024E-04  3541   0.384E-02
  273 T=  2176. E= -.84130206E+03 F= -.83764808E+03 E0= -.83764808E+03  EK= 0.33472E+02 SP= -.38E+02 SK= 0.40E+00
       N       E                     dE             d eps       ncg     rms          rms(c)
DAV:   1    -0.838052775420E+03   -0.40474E+00   -0.34506E-02  6766   0.149E+00    0.370E-02
RMM:   2    -0.838054334079E+03   -0.15587E-02   -0.15834E-02  4049   0.220E-01    0.331E-02
RMM:   3    -0.838054616978E+03   -0.28290E-03   -0.27665E-03  4249   0.915E-02    0.289E-02
RMM:   4    -0.838054661643E+03   -0.44665E-04   -0.51575E-04  3475   0.375E-02
  274 T=  2153. E= -.84130027E+03 F= -.83805466E+03 E0= -.83805466E+03  EK= 0.33124E+02 SP= -.37E+02 SK= 0.34E+00
       N       E                     dE             d eps       ncg     rms          rms(c)
DAV:   1    -0.838464417672E+03   -0.40980E+00   -0.36416E-02  6771   0.149E+00    0.660E-02
RMM:   2    -0.838465984830E+03   -0.15672E-02   -0.16622E-02  4048   0.226E-01    0.253E-02
RMM:   3    -0.838466290308E+03   -0.30548E-03   -0.29539E-03  4253   0.948E-02    0.163E-02
RMM:   4    -0.838466338455E+03   -0.48148E-04   -0.52120E-04  3508   0.385E-02
  275 T=  2135. E= -.84129891E+03 F= -.83846634E+03 E0= -.83846634E+03  EK= 0.32847E+02 SP= -.36E+02 SK= 0.29E+00
       N       E                     dE             d eps       ncg     rms          rms(c)
DAV:   1    -0.838877601748E+03   -0.41131E+00   -0.32185E-02  6841   0.149E+00    0.393E-02
RMM:   2    -0.838879196896E+03   -0.15951E-02   -0.16030E-02  4049   0.222E-01    0.284E-02
RMM:   3    -0.838879473235E+03   -0.27634E-03   -0.27470E-03  4256   0.920E-02    0.275E-02
RMM:   4    -0.838879520756E+03   -0.47521E-04   -0.50977E-04  3516   0.377E-02
  276 T=  2122. E= -.84129804E+03 F= -.83887952E+03 E0= -.83887952E+03  EK= 0.32643E+02 SP= -.35E+02 SK= 0.23E+00
       N       E                     dE             d eps       ncg     rms          rms(c)
DAV:   1    -0.839287680981E+03   -0.40821E+00   -0.33274E-02  6742   0.148E+00    0.355E-02
RMM:   2    -0.839289118983E+03   -0.14380E-02   -0.14714E-02  4048   0.216E-01    0.484E-02
RMM:   3    -0.839289372746E+03   -0.25376E-03   -0.25231E-03  4239   0.888E-02    0.474E-02
RMM:   4    -0.839289417644E+03   -0.44898E-04   -0.48622E-04  3510   0.369E-02
  277 T=  2113. E= -.84129787E+03 F= -.83928942E+03 E0= -.83928942E+03  EK= 0.32508E+02 SP= -.35E+02 SK= 0.18E+00
       N       E                     dE             d eps       ncg     rms          rms(c)
DAV:   1    -0.839688130976E+03   -0.39876E+00   -0.35245E-02  6561   0.148E+00    0.589E-02
RMM:   2    -0.839689569556E+03   -0.14386E-02   -0.15393E-02  4048   0.221E-01    0.467E-02
RMM:   3    -0.839689842302E+03   -0.27275E-03   -0.27092E-03  4224   0.920E-02    0.316E-02
RMM:   4    -0.839689887448E+03   -0.45146E-04   -0.49922E-04  3514   0.381E-02
  278 T=  2109. E= -.84129805E+03 F= -.83968989E+03 E0= -.83968989E+03  EK= 0.32438E+02 SP= -.34E+02 SK= 0.13E+00
       N       E                     dE             d eps       ncg     rms          rms(c)
DAV:   1    -0.840072266286E+03   -0.38242E+00   -0.32803E-02  6875   0.149E+00    0.118E-01
RMM:   2    -0.840073785453E+03   -0.15192E-02   -0.17184E-02  4048   0.224E-01    0.249E-02
RMM:   3    -0.840074098637E+03   -0.31318E-03   -0.30610E-03  4247   0.963E-02    0.157E-02
RMM:   4    -0.840074148241E+03   -0.49604E-04   -0.55806E-04  3578   0.393E-02
  279 T=  2108. E= -.84129837E+03 F= -.84007415E+03 E0= -.84007415E+03  EK= 0.32427E+02 SP= -.34E+02 SK= 0.88E-01
       N       E                     dE             d eps       ncg     rms          rms(c)
DAV:   1    -0.840432710255E+03   -0.35861E+00   -0.37549E-02  6718   0.148E+00    0.432E-02
RMM:   2    -0.840434299507E+03   -0.15893E-02   -0.15992E-02  4049   0.225E-01    0.259E-02
RMM:   3    -0.840434583000E+03   -0.28349E-03   -0.27613E-03  4248   0.923E-02    0.229E-02
RMM:   4    -0.840434630434E+03   -0.47434E-04   -0.50911E-04  3511   0.380E-02
  280 T=  2111. E= -.84129903E+03 F= -.84043463E+03 E0= -.84043463E+03  EK= 0.32466E+02 SP= -.33E+02 SK= 0.55E-01
       N       E                     dE             d eps       ncg     rms          rms(c)
DAV:   1    -0.840762170530E+03   -0.32759E+00   -0.33496E-02  6777   0.147E+00    0.408E-02
RMM:   2    -0.840763636411E+03   -0.14659E-02   -0.15031E-02  4048   0.217E-01    0.388E-02
RMM:   3    -0.840763902479E+03   -0.26607E-03   -0.26040E-03  4235   0.897E-02    0.331E-02
RMM:   4    -0.840763939228E+03   -0.36749E-04   -0.48328E-04  3436   0.370E-02
  281 T=  2116. E= -.84130006E+03 F= -.84076394E+03 E0= -.84076394E+03  EK= 0.32547E+02 SP= -.33E+02 SK= 0.31E-01
       N       E                     dE             d eps       ncg     rms          rms(c)
DAV:   1    -0.841053894089E+03   -0.28999E+00   -0.32873E-02  6681   0.147E+00    0.663E-02
RMM:   2    -0.841055290917E+03   -0.13968E-02   -0.14856E-02  4048   0.218E-01    0.261E-02
RMM:   3    -0.841055554042E+03   -0.26313E-03   -0.25470E-03  4208   0.900E-02    0.158E-02
RMM:   4    -0.841055600584E+03   -0.46542E-04   -0.48686E-04  3462   0.376E-02
  282 T=  2123. E= -.84130113E+03 F= -.84105560E+03 E0= -.84105560E+03  EK= 0.32661E+02 SP= -.33E+02 SK= 0.14E-01
       N       E                     dE             d eps       ncg     rms          rms(c)
DAV:   1    -0.841302633952E+03   -0.24708E+00   -0.30376E-02  6753   0.147E+00    0.443E-02
RMM:   2    -0.841304163721E+03   -0.15298E-02   -0.15367E-02  4049   0.217E-01    0.284E-02
RMM:   3    -0.841304429901E+03   -0.26618E-03   -0.26618E-03  4253   0.896E-02    0.281E-02
RMM:   4    -0.841304478798E+03   -0.48897E-04   -0.50553E-04  3453   0.370E-02
  283 T=  2133. E= -.84130221E+03 F= -.84130448E+03 E0= -.84130448E+03  EK= 0.32803E+02 SP= -.33E+02 SK= 0.36E-02
       N       E                     dE             d eps       ncg     rms          rms(c)
DAV:   1    -0.841505963245E+03   -0.20153E+00   -0.33975E-02  6795   0.146E+00    0.532E-02
RMM:   2    -0.841507350982E+03   -0.13877E-02   -0.14800E-02  4048   0.215E-01    0.560E-02
RMM:   3    -0.841507589827E+03   -0.23884E-03   -0.25919E-03  4265   0.878E-02    0.441E-02
RMM:   4    -0.841507615043E+03   -0.25216E-04   -0.51528E-04  3570   0.378E-02
  284 T=  2143. E= -.84130331E+03 F= -.84150762E+03 E0= -.84150762E+03  EK= 0.32965E+02 SP= -.33E+02 SK= 0.42E-04
       N       E                     dE             d eps       ncg     rms          rms(c)
DAV:   1    -0.841663216305E+03   -0.15563E+00   -0.31439E-02  6916   0.145E+00    0.130E-01
RMM:   2    -0.841664310820E+03   -0.10945E-02   -0.15490E-02  4048   0.220E-01    0.377E-02
RMM:   3    -0.841664595742E+03   -0.28492E-03   -0.30322E-03  4196   0.961E-02    0.109E-02
RMM:   4    -0.841664642931E+03   -0.47188E-04   -0.51867E-04  3538   0.397E-02
  285 T=  2155. E= -.84130421E+03 F= -.84166464E+03 E0= -.84166464E+03  EK= 0.33146E+02 SP= -.33E+02 SK= 0.19E-02
       N       E                     dE             d eps       ncg     rms          rms(c)
DAV:   1    -0.841776065419E+03   -0.11147E+00   -0.33429E-02  6711   0.145E+00    0.473E-02
RMM:   2    -0.841777565472E+03   -0.15001E-02   -0.15077E-02  4048   0.222E-01    0.266E-02
RMM:   3    -0.841777820938E+03   -0.25547E-03   -0.25280E-03  4233   0.894E-02    0.246E-02
RMM:   4    -0.841777863539E+03   -0.42601E-04   -0.47597E-04  3467   0.369E-02
  286 T=  2168. E= -.84130502E+03 F= -.84177786E+03 E0= -.84177786E+03  EK= 0.33342E+02 SP= -.33E+02 SK= 0.82E-02
       N       E                     dE             d eps       ncg     rms          rms(c)
DAV:   1    -0.841850668876E+03   -0.72848E-01   -0.34071E-02  6705   0.143E+00    0.433E-02
RMM:   2    -0.841852107587E+03   -0.14387E-02   -0.14722E-02  4048   0.218E-01    0.343E-02
RMM:   3    -0.841852371916E+03   -0.26433E-03   -0.25709E-03  4242   0.889E-02    0.276E-02
RMM:   4    -0.841852414346E+03   -0.42430E-04   -0.47147E-04  3439   0.366E-02
  287 T=  2182. E= -.84130591E+03 F= -.84185241E+03 E0= -.84185241E+03  EK= 0.33557E+02 SP= -.33E+02 SK= 0.18E-01
       N       E                     dE             d eps       ncg     rms          rms(c)
DAV:   1    -0.841894051597E+03   -0.41680E-01   -0.36772E-02  6721   0.143E+00    0.647E-02
RMM:   2    -0.841895570932E+03   -0.15193E-02   -0.16004E-02  4048   0.227E-01    0.247E-02
RMM:   3    -0.841895850752E+03   -0.27982E-03   -0.26883E-03  4218   0.929E-02    0.194E-02
RMM:   4    -0.841895893770E+03   -0.43018E-04   -0.48640E-04  3518   0.380E-02
  288 T=  2197. E= -.84130672E+03 F= -.84189589E+03 E0= -.84189589E+03  EK= 0.33792E+02 SP= -.33E+02 SK= 0.30E-01
       N       E                     dE             d eps       ncg     rms          rms(c)
DAV:   1    -0.841915603052E+03   -0.19752E-01   -0.32263E-02  6942   0.143E+00    0.367E-02
RMM:   2    -0.841917190519E+03   -0.15875E-02   -0.15912E-02  4049   0.221E-01    0.308E-02
RMM:   3    -0.841917478918E+03   -0.28840E-03   -0.28352E-03  4262   0.913E-02    0.283E-02
RMM:   4    -0.841917525992E+03   -0.47075E-04   -0.50529E-04  3465   0.371E-02
  289 T=  2214. E= -.84130764E+03 F= -.84191753E+03 E0= -.84191753E+03  EK= 0.34053E+02 SP= -.33E+02 SK= 0.43E-01
       N       E                     dE             d eps       ncg     rms          rms(c)
DAV:   1    -0.841925722549E+03   -0.82436E-02   -0.37370E-02  6582   0.142E+00    0.388E-02
RMM:   2    -0.841927215627E+03   -0.14931E-02   -0.15189E-02  4048   0.223E-01    0.369E-02
RMM:   3    -0.841927480399E+03   -0.26477E-03   -0.25733E-03  4218   0.902E-02    0.315E-02
RMM:   4    -0.841927521672E+03   -0.41273E-04   -0.47251E-04  3444   0.371E-02
  290 T=  2233. E= -.84130886E+03 F= -.84192752E+03 E0= -.84192752E+03  EK= 0.34345E+02 SP= -.34E+02 SK= 0.56E-01
       N       E                     dE             d eps       ncg     rms          rms(c)
DAV:   1    -0.841934421535E+03   -0.69411E-02   -0.35006E-02  6611   0.142E+00    0.864E-02
RMM:   2    -0.841935875296E+03   -0.14538E-02   -0.15886E-02  4048   0.226E-01    0.227E-02
RMM:   3    -0.841936165393E+03   -0.29010E-03   -0.27985E-03  4219   0.932E-02    0.119E-02
RMM:   4    -0.841936213083E+03   -0.47690E-04   -0.50840E-04  3493   0.382E-02
  291 T=  2254. E= -.84131015E+03 F= -.84193621E+03 E0= -.84193621E+03  EK= 0.34671E+02 SP= -.34E+02 SK= 0.67E-01
       N       E                     dE             d eps       ncg     rms          rms(c)
DAV:   1    -0.841951342268E+03   -0.15177E-01   -0.39593E-02  6465   0.142E+00    0.447E-02
RMM:   2    -0.841952944639E+03   -0.16024E-02   -0.16086E-02  4048   0.230E-01    0.275E-02
RMM:   3    -0.841953209311E+03   -0.26467E-03   -0.26043E-03  4194   0.923E-02    0.268E-02
RMM:   4    -0.841953259021E+03   -0.49710E-04   -0.51158E-04  3565   0.385E-02
  292 T=  2278. E= -.84131170E+03 F= -.84195326E+03 E0= -.84195326E+03  EK= 0.35035E+02 SP= -.34E+02 SK= 0.76E-01
       N       E                     dE             d eps       ncg     rms          rms(c)
DAV:   1    -0.841984784910E+03   -0.31576E-01   -0.33094E-02  6787   0.142E+00    0.434E-02
RMM:   2    -0.841986257445E+03   -0.14725E-02   -0.15147E-02  4048   0.219E-01    0.587E-02
RMM:   3    -0.841986530305E+03   -0.27286E-03   -0.27001E-03  4251   0.894E-02    0.591E-02
RMM:   4    -0.841986590117E+03   -0.59812E-04   -0.50360E-04  3470   0.371E-02
  293 T=  2304. E= -.84131385E+03 F= -.84198659E+03 E0= -.84198659E+03  EK= 0.35436E+02 SP= -.35E+02 SK= 0.82E-01
       N       E                     dE             d eps       ncg     rms          rms(c)
DAV:   1    -0.842040013805E+03   -0.53483E-01   -0.35889E-02  6766   0.142E+00    0.802E-02
RMM:   2    -0.842041410634E+03   -0.13968E-02   -0.15330E-02  4048   0.224E-01    0.465E-02
RMM:   3    -0.842041679863E+03   -0.26923E-03   -0.27864E-03  4209   0.927E-02    0.220E-02
RMM:   4    -0.842041730122E+03   -0.50258E-04   -0.50373E-04  3530   0.387E-02
  294 T=  2332. E= -.84131627E+03 F= -.84204173E+03 E0= -.84204173E+03  EK= 0.35871E+02 SP= -.35E+02 SK= 0.83E-01
       N       E                     dE             d eps       ncg     rms          rms(c)
DAV:   1    -0.842119335428E+03   -0.77656E-01   -0.32926E-02  6761   0.144E+00    0.941E-02
RMM:   2    -0.842120977512E+03   -0.16421E-02   -0.17421E-02  4048   0.236E-01    0.242E-02
RMM:   3    -0.842121237019E+03   -0.25951E-03   -0.26784E-03  4188   0.955E-02    0.252E-02
RMM:   4    -0.842121275660E+03   -0.38641E-04   -0.52531E-04  3567   0.392E-02
  295 T=  2362. E= -.84131898E+03 F= -.84212128E+03 E0= -.84212128E+03  EK= 0.36333E+02 SP= -.36E+02 SK= 0.79E-01
       N       E                     dE             d eps       ncg     rms          rms(c)
DAV:   1    -0.842222033196E+03   -0.10080E+00   -0.33363E-02  6734   0.144E+00    0.536E-02
RMM:   2    -0.842223590174E+03   -0.15570E-02   -0.15753E-02  4048   0.224E-01    0.245E-02
RMM:   3    -0.842223870557E+03   -0.28038E-03   -0.27311E-03  4211   0.912E-02    0.201E-02
RMM:   4    -0.842223922356E+03   -0.51799E-04   -0.52913E-04  3528   0.380E-02
  296 T=  2393. E= -.84132205E+03 F= -.84222392E+03 E0= -.84222392E+03  EK= 0.36807E+02 SP= -.36E+02 SK= 0.71E-01
       N       E                     dE             d eps       ncg     rms          rms(c)
DAV:   1    -0.842342718573E+03   -0.11885E+00   -0.34582E-02  6724   0.146E+00    0.501E-02
RMM:   2    -0.842344347051E+03   -0.16285E-02   -0.16816E-02  4048   0.231E-01    0.372E-02
RMM:   3    -0.842344623358E+03   -0.27631E-03   -0.27572E-03  4220   0.944E-02    0.331E-02
RMM:   4    -0.842344656832E+03   -0.33474E-04   -0.50907E-04  3542   0.385E-02
  297 T=  2423. E= -.84132537E+03 F= -.84234466E+03 E0= -.84234466E+03  EK= 0.37278E+02 SP= -.36E+02 SK= 0.59E-01
       N       E                     dE             d eps       ncg     rms          rms(c)
DAV:   1    -0.842473303971E+03   -0.12868E+00   -0.35981E-02  6643   0.147E+00    0.438E-02
RMM:   2    -0.842474895977E+03   -0.15920E-02   -0.16117E-02  4048   0.230E-01    0.355E-02
RMM:   3    -0.842475181392E+03   -0.28541E-03   -0.27656E-03  4225   0.930E-02    0.283E-02
RMM:   4    -0.842475228506E+03   -0.47114E-04   -0.50863E-04  3525   0.382E-02
  298 T=  2452. E= -.84132877E+03 F= -.84247523E+03 E0= -.84247523E+03  EK= 0.37723E+02 SP= -.37E+02 SK= 0.44E-01
       N       E                     dE             d eps       ncg     rms          rms(c)
DAV:   1    -0.842602912161E+03   -0.12773E+00   -0.35424E-02  6713   0.149E+00    0.680E-02
RMM:   2    -0.842604578233E+03   -0.16661E-02   -0.17475E-02  4048   0.236E-01    0.257E-02
RMM:   3    -0.842604877973E+03   -0.29974E-03   -0.29359E-03  4219   0.970E-02    0.228E-02
RMM:   4    -0.842604921940E+03   -0.43967E-04   -0.53490E-04  3584   0.396E-02
  299 T=  2478. E= -.84133189E+03 F= -.84260492E+03 E0= -.84260492E+03  EK= 0.38121E+02 SP= -.37E+02 SK= 0.29E-01
       N       E                     dE             d eps       ncg     rms          rms(c)
DAV:   1    -0.842720369525E+03   -0.11549E+00   -0.33453E-02  6838   0.150E+00    0.527E-02
RMM:   2    -0.842721984631E+03   -0.16151E-02   -0.16306E-02  4048   0.231E-01    0.253E-02
RMM:   3    -0.842722267814E+03   -0.28318E-03   -0.27578E-03  4225   0.934E-02    0.228E-02
RMM:   4    -0.842722316525E+03   -0.48711E-04   -0.51991E-04  3554   0.384E-02
  300 T=  2499. E= -.84133457E+03 F= -.84272232E+03 E0= -.84272232E+03  EK= 0.38446E+02 SP= -.37E+02 SK= 0.15E-01
