unknown system                          
            1
     9.239087    0.050189    4.191143
     2.676747    9.099570    4.285847
    -0.051444    0.072033   10.408063
   B    C 
    96    24
Direct configuration=     1
   0.15792300  0.40375800  0.40375800
   0.15792300  0.40375800  0.90375800
   0.15792300  0.90375800  0.40375800
   0.15792300  0.90375800  0.90375800
   0.65792300  0.40375800  0.40375800
   0.65792300  0.40375800  0.90375800
   0.65792300  0.90375800  0.40375800
   0.65792300  0.90375800  0.90375800
   0.40163200  0.40233800  0.15722000
   0.40163200  0.40233800  0.65722000
   0.40163200  0.90233800  0.15722000
   0.40163200  0.90233800  0.65722000
   0.90163200  0.40233800  0.15722000
   0.90163200  0.40233800  0.65722000
   0.90163200  0.90233800  0.15722000
   0.90163200  0.90233800  0.65722000
   0.40163200  0.15722000  0.40233800
   0.40163200  0.15722000  0.90233800
   0.40163200  0.65722000  0.40233800
   0.40163200  0.65722000  0.90233800
   0.90163200  0.15722000  0.40233800
   0.90163200  0.15722000  0.90233800
   0.90163200  0.65722000  0.40233800
   0.90163200  0.65722000  0.90233800
   0.34136600  0.09666500  0.09666500
   0.34136600  0.09666500  0.59666500
   0.34136600  0.59666500  0.09666500
   0.34136600  0.59666500  0.59666500
   0.84136600  0.09666500  0.09666500
   0.84136600  0.09666500  0.59666500
   0.84136600  0.59666500  0.09666500
   0.84136600  0.59666500  0.59666500
   0.09870000  0.09683600  0.34371100
   0.09870000  0.09683600  0.84371100
   0.09870000  0.59683600  0.34371100
   0.09870000  0.59683600  0.84371100
   0.59870000  0.09683600  0.34371100
   0.59870000  0.09683600  0.84371100
   0.59870000  0.59683600  0.34371100
   0.59870000  0.59683600  0.84371100
   0.09870000  0.34371100  0.09683600
   0.09870000  0.34371100  0.59683600
   0.09870000  0.84371100  0.09683600
   0.09870000  0.84371100  0.59683600
   0.59870000  0.34371100  0.09683600
   0.59870000  0.34371100  0.59683600
   0.59870000  0.84371100  0.09683600
   0.59870000  0.84371100  0.59683600
   0.49444700  0.49739900  0.33679800
   0.49444700  0.49739900  0.83679800
   0.49444700  0.99739900  0.33679800
   0.49444700  0.99739900  0.83679800
   0.99444700  0.49739900  0.33679800
   0.99444700  0.49739900  0.83679800
   0.99444700  0.99739900  0.33679800
   0.99444700  0.99739900  0.83679800
   0.49444700  0.33679800  0.49739900
   0.49444700  0.33679800  0.99739900
   0.49444700  0.83679800  0.49739900
   0.49444700  0.83679800  0.99739900
   0.99444700  0.33679800  0.49739900
   0.99444700  0.33679800  0.99739900
   0.99444700  0.83679800  0.49739900
   0.99444700  0.83679800  0.99739900
   0.17079500  0.00295000  0.00295000
   0.17079500  0.00295000  0.50295000
   0.17079500  0.50295000  0.00295000
   0.17079500  0.50295000  0.50295000
   0.67079500  0.00295000  0.00295000
   0.67079500  0.00295000  0.50295000
   0.67079500  0.50295000  0.00295000
   0.67079500  0.50295000  0.50295000
   0.00347500  0.00275500  0.16436200
   0.00347500  0.00275500  0.66436200
   0.00347500  0.50275500  0.16436200
   0.00347500  0.50275500  0.66436200
   0.50347500  0.00275500  0.16436200
   0.50347500  0.00275500  0.66436200
   0.50347500  0.50275500  0.16436200
   0.50347500  0.50275500  0.66436200
   0.00347500  0.16436200  0.00275500
   0.00347500  0.16436200  0.50275500
   0.00347500  0.66436200  0.00275500
   0.00347500  0.66436200  0.50275500
   0.50347500  0.16436200  0.00275500
   0.50347500  0.16436200  0.50275500
   0.50347500  0.66436200  0.00275500
   0.50347500  0.66436200  0.50275500
   0.24799500  0.24900900  0.24900900
   0.24799500  0.24900900  0.74900900
   0.24799500  0.74900900  0.24900900
   0.24799500  0.74900900  0.74900900
   0.74799500  0.24900900  0.24900900
   0.74799500  0.24900900  0.74900900
   0.74799500  0.74900900  0.24900900
   0.74799500  0.74900900  0.74900900
   0.33833600  0.49792800  0.49792800
   0.33833600  0.49792800  0.99792800
   0.33833600  0.99792800  0.49792800
   0.33833600  0.99792800  0.99792800
   0.83833600  0.49792800  0.49792800
   0.83833600  0.49792800  0.99792800
   0.83833600  0.99792800  0.49792800
   0.83833600  0.99792800  0.99792800
   0.30608800  0.30943700  0.30943700
   0.30608800  0.30943700  0.80943700
   0.30608800  0.80943700  0.30943700
   0.30608800  0.80943700  0.80943700
   0.80608800  0.30943700  0.30943700
   0.80608800  0.30943700  0.80943700
   0.80608800  0.80943700  0.30943700
   0.80608800  0.80943700  0.80943700
   0.19098900  0.18883500  0.18883500
   0.19098900  0.18883500  0.68883500
   0.19098900  0.68883500  0.18883500
   0.19098900  0.68883500  0.68883500
   0.69098900  0.18883500  0.18883500
   0.69098900  0.18883500  0.68883500
   0.69098900  0.68883500  0.18883500
   0.69098900  0.68883500  0.68883500
Direct configuration=     2
   0.15808791  0.40426146  0.40342569
   0.15805650  0.40495553  0.90207035
   0.15746073  0.90276027  0.40387263
   0.15761739  0.90449444  0.90359287
   0.65707127  0.40350313  0.40407318
   0.65793052  0.40334571  0.90427562
   0.65826813  0.90383535  0.40410931
   0.65839942  0.90250198  0.90371862
   0.40202376  0.40195514  0.15717735
   0.40057474  0.40144900  0.65761653
   0.40151463  0.90073265  0.15747509
   0.40100588  0.90249044  0.65794400
   0.90220808  0.40154549  0.15683110
   0.90159089  0.40063192  0.65811342
   0.90177257  0.90350501  0.15861074
   0.90085492  0.90297522  0.65568510
   0.40069459  0.15797425  0.40223226
   0.40211769  0.15766418  0.90213163
   0.40123433  0.65616750  0.40153965
   0.40314289  0.65765502  0.90154853
   0.90334840  0.15550422  0.40138198
   0.90200130  0.15827908  0.90096291
   0.90133637  0.65615280  0.40286276
   0.90096385  0.65713661  0.90281000
   0.34251195  0.09659928  0.09617360
   0.34106946  0.09686805  0.59726680
   0.34083587  0.59665292  0.09751252
   0.34075506  0.59677103  0.59640013
   0.84079266  0.09700158  0.09774178
   0.84168247  0.09672119  0.59668938
   0.84234785  0.59673109  0.09742605
   0.84067537  0.59595089  0.59768530
   0.09715015  0.09706598  0.34443869
   0.09930890  0.09693969  0.84250705
   0.09835232  0.59673326  0.34445459
   0.09698071  0.59696124  0.84545765
   0.59888491  0.09726933  0.34367239
   0.59908062  0.09705497  0.84416235
   0.59861577  0.59741698  0.34405186
   0.59892225  0.59658298  0.84344717
   0.09963450  0.34315420  0.09582873
   0.09883707  0.34274631  0.59830735
   0.09885387  0.84339585  0.09690033
   0.09934676  0.84415825  0.59646523
   0.59898091  0.34350766  0.09655424
   0.59899443  0.34351352  0.59762538
   0.59900703  0.84372131  0.09758947
   0.59952154  0.84296737  0.59684434
   0.49426732  0.49788105  0.33704220
   0.49483100  0.49775597  0.83556737
   0.49449592  0.99689051  0.33676867
   0.49556590  0.99790298  0.83584725
   0.99547917  0.49758757  0.33637925
   0.99534752  0.49847394  0.83726302
   0.99214509  0.99780849  0.33769523
   0.99437841  0.99762693  0.83755473
   0.49394818  0.33706714  0.49728246
   0.49402423  0.33682436  0.99701030
   0.49490368  0.83655897  0.49804897
   0.49505087  0.83646582  0.99659584
   0.99352343  0.33690463  0.49765762
   0.99507793  0.33734041  0.99698398
   0.99452021  0.83723364  0.49755625
   0.99555392  0.83701803  0.99668981
   0.16952735  0.00276429  0.00318344
   0.17035588  0.00335870  0.50349499
   0.17059348  0.50369321  0.00277309
   0.17007775  0.50327845  0.50270143
   0.66981146  0.00387433  0.00358976
   0.67003689  0.00339154  0.50228581
   0.67053013  0.50228552  0.00322320
   0.67003823  0.50209617  0.50236154
   0.00407474  0.00322042  0.16372182
   0.00329518  0.00325552  0.66355531
   0.00312160  0.50370168  0.16402284
   0.00402915  0.50247542  0.66493688
   0.50296774  0.00380573  0.16445124
   0.50477224  0.00217939  0.66368879
   0.50216990  0.50268403  0.16392291
   0.50199318  0.50303444  0.66425832
   0.00378110  0.16464027  0.00282995
   0.00436868  0.16453265  0.50217945
   0.00230028  0.66497687  0.00332886
   0.00407251  0.66457557  0.50354599
   0.50404802  0.16359297  0.00259867
   0.50369450  0.16433741  0.50271795
   0.50322639  0.66404151  0.00496748
   0.50314709  0.66324363  0.50356662
   0.24905703  0.24961276  0.24864443
   0.24737619  0.24853693  0.74881189
   0.24747661  0.74978776  0.24860649
   0.24876746  0.74907728  0.74930552
   0.74878501  0.24885388  0.24787836
   0.74801555  0.25013135  0.74821754
   0.74778611  0.74885178  0.24848263
   0.74866783  0.74829683  0.74848738
   0.33821331  0.49644101  0.49870017
   0.33804326  0.49853956  0.99758756
   0.33875516  0.99793421  0.49650600
   0.33800217  0.99736573  0.99742849
   0.83805953  0.49927172  0.49735106
   0.83882052  0.49689893  0.99820750
   0.83841227  0.99714212  0.49853552
   0.83922584  0.99754299  0.99761395
   0.30549241  0.30840828  0.31032754
   0.30635232  0.30968215  0.80971372
   0.30676919  0.80971582  0.30757911
   0.30723219  0.81060325  0.80776557
   0.80665336  0.30896279  0.31026035
   0.80621009  0.30961514  0.80968525
   0.80474417  0.81110743  0.30858698
   0.80688753  0.81063122  0.80958229
   0.19134297  0.18856819  0.18964359
   0.19070407  0.18952421  0.68800484
   0.19148294  0.68828508  0.18938471
   0.19073163  0.68826979  0.68848904
   0.69072501  0.18832083  0.18952331
   0.69047301  0.18834076  0.68919811
   0.69073989  0.68923240  0.18888676
   0.69031015  0.68822241  0.69001310
Direct configuration=     3
   0.15825006  0.40476035  0.40309898
   0.15819110  0.40614821  0.90039151
   0.15700098  0.90176824  0.40398354
   0.15731755  0.90522571  0.90342478
   0.65622499  0.40324674  0.40438565
   0.65793757  0.40293489  0.90478939
   0.65860972  0.90391347  0.40445898
   0.65887168  0.90125400  0.90368205
   0.40240903  0.40156837  0.15713863
   0.39952135  0.40056167  0.65801155
   0.40140132  0.89913550  0.15772299
   0.40038668  0.90264461  0.65865987
   0.90278114  0.40075274  0.15644807
   0.90155088  0.39893262  0.65900374
   0.90191171  0.90466573  0.15999780
   0.90008051  0.90360726  0.65415910
   0.39976223  0.15872220  0.40212810
   0.40259987  0.15810857  0.90192271
   0.40083467  0.65512184  0.40074118
   0.40464555  0.65809345  0.90075914
   0.90504994  0.15380219  0.40042864
   0.90236921  0.15933363  0.89959468
   0.90103497  0.65509798  0.40338142
   0.90029315  0.65705880  0.90327901
   0.34364904  0.09653253  0.09568747
   0.34077729  0.09706980  0.59786333
   0.34030819  0.59664033  0.09835455
   0.34014306  0.59687470  0.59613651
   0.84022527  0.09733793  0.09880949
   0.84199627  0.09677997  0.59671299
   0.84332174  0.59679773  0.09818746
   0.83998815  0.59523686  0.59870454
   0.09561429  0.09729439  0.34515922
   0.09991415  0.09704741  0.84130845
   0.09800809  0.59663501  0.34519412
   0.09527316  0.59709479  0.84719178
   0.59906587  0.09770282  0.34363592
   0.59946228  0.09727192  0.84461262
   0.59853162  0.59799681  0.34439143
   0.59914386  0.59632978  0.84318893
   0.10056918  0.34259931  0.09482694
   0.09896984  0.34179162  0.59976990
   0.09900906  0.84307978  0.09696828
   0.09999240  0.84460246  0.59609870
   0.59926159  0.34330203  0.09627684
   0.59928470  0.34331630  0.59841406
   0.59931212  0.84373422  0.09834007
   0.60033896  0.84222682  0.59685615
   0.49408767  0.49835993  0.33728315
   0.49521210  0.49811246  0.83434428
   0.49454316  0.99638518  0.33674344
   0.49668153  0.99840502  0.83490078
   0.99650726  0.49777575  0.33596298
   0.99624248  0.49954620  0.83772519
   0.98985245  0.99821420  0.33858904
   0.99430811  0.99785616  0.83830488
   0.49345025  0.33733500  0.49716806
   0.49360176  0.33685257  0.99662216
   0.49535784  0.83631955  0.49869760
   0.49565271  0.83613788  0.99579674
   0.99260307  0.33701482  0.49791537
   0.99570810  0.33788130  0.99656957
   0.99459349  0.83766674  0.49771384
   0.99665385  0.83724020  0.99598612
   0.16826344  0.00258157  0.00341568
   0.16991417  0.00376664  0.50403719
   0.17038608  0.50443549  0.00259881
   0.16935961  0.50360490  0.50245752
   0.66883097  0.00479398  0.00422923
   0.66928016  0.00383215  0.50162573
   0.67026268  0.50162415  0.00349711
   0.66928102  0.50124713  0.50177721
   0.00467211  0.00368663  0.16308623
   0.00311743  0.00375469  0.66275444
   0.00277394  0.50464360  0.16368484
   0.00458185  0.50219645  0.66551171
   0.50246390  0.00485050  0.16453997
   0.50606606  0.00160732  0.66301733
   0.50087130  0.50261193  0.16349138
   0.50051654  0.50331195  0.66415413
   0.00408694  0.16491937  0.00290266
   0.00525958  0.16470152  0.50160637
   0.00113148  0.66559090  0.00390187
   0.00466631  0.66478603  0.50433692
   0.50462009  0.16282957  0.00244347
   0.50391298  0.16431342  0.50268111
   0.50298080  0.66371896  0.00717135
   0.50281919  0.66213127  0.50437514
   0.25011310  0.25021284  0.24827794
   0.24676565  0.24807486  0.74862604
   0.24695967  0.75056826  0.24820689
   0.24953420  0.74914155  0.74959721
   0.74957975  0.24870705  0.24675832
   0.74803535  0.25125237  0.74742856
   0.74758147  0.74870366  0.24796378
   0.74934825  0.74759650  0.74797791
   0.33809430  0.49495755  0.49946858
   0.33775784  0.49915010  0.99724584
   0.33917857  0.99794028  0.49508829
   0.33767720  0.99680370  0.99692908
   0.83778578  0.50060860  0.49677627
   0.83930820  0.49587189  0.99848709
   0.83848983  0.99635881  0.49913947
   0.84011669  0.99716094  0.99730102
   0.30490033  0.30739037  0.31121466
   0.30660899  0.30991999  0.80998504
   0.30744277  0.80999066  0.30573276
   0.30836868  0.81176411  0.80610634
   0.80721352  0.30848462  0.31107605
   0.80632696  0.30979130  0.80993248
   0.80340632  0.81276564  0.30773928
   0.80768060  0.81181289  0.80971894
   0.19169791  0.18829705  0.19044396
   0.19042120  0.19019939  0.68717194
   0.19197067  0.68773189  0.18992847
   0.19047498  0.68770634  0.68814769
   0.69045978  0.18780463  0.19020166
   0.68996375  0.18784484  0.68955564
   0.69049149  0.68961780  0.18893248
   0.68963516  0.68760472  0.69117926
Direct configuration=     4
   0.15840667  0.40525068  0.40278335
   0.15832780  0.40733170  0.89873030
   0.15654597  0.90078761  0.40408741
   0.15702868  0.90594724  0.90325126
   0.65538911  0.40298752  0.40469312
   0.65794339  0.40252732  0.90529585
   0.65894381  0.90399343  0.40480581
   0.65933517  0.90002201  0.90365144
   0.40278344  0.40117700  0.15710468
   0.39847752  0.39968082  0.65840075
   0.40129863  0.89755786  0.15795295
   0.39978365  0.90280614  0.65935595
   0.90335020  0.39996260  0.15607390
   0.90151499  0.39724963  0.65988518
   0.90204960  0.90581719  0.16137549
   0.89931294  0.90423205  0.65264868
   0.39884183  0.15945475  0.40203053
   0.40307707  0.15855077  0.90171188
   0.40043258  0.65408718  0.39994563
   0.40613382  0.65853596  0.89997296
   0.90672239  0.15212568  0.39948431
   0.90273663  0.16037662  0.89824263
   0.90072469  0.65406442  0.40389141
   0.89961915  0.65698931  0.90374536
   0.34476989  0.09646300  0.09521074
   0.34049504  0.09726823  0.59844872
   0.33978654  0.59662573  0.09918499
   0.33953021  0.59697286  0.59587432
   0.83967080  0.09767295  0.09985898
   0.84230602  0.09684296  0.59673434
   0.84428075  0.59686482  0.09894894
   0.83930868  0.59452207  0.59972101
   0.09410569  0.09751692  0.34586614
   0.10051074  0.09716072  0.84012108
   0.09766894  0.59654342  0.34592654
   0.09358721  0.59724246  0.84890255
   0.59923739  0.09813426  0.34360465
   0.59984437  0.09748259  0.84506163
   0.59844598  0.59857215  0.34472928
   0.59936278  0.59607339  0.84294258
   0.10150289  0.34204882  0.09383352
   0.09909201  0.34085831  0.60121276
   0.09916525  0.84276287  0.09704097
   0.10063447  0.84504155  0.59573800
   0.59954024  0.34309266  0.09600576
   0.59956534  0.34312037  0.59919909
   0.59961176  0.84375327  0.09908265
   0.60114702  0.84149311  0.59687237
   0.49390886  0.49883183  0.33751606
   0.49558812  0.49846772  0.83313425
   0.49458777  0.99588562  0.33672456
   0.49779151  0.99890296  0.83396091
   0.99752795  0.49796286  0.33554980
   0.99712667  0.50061280  0.83817992
   0.98757905  0.99861144  0.33947398
   0.99423509  0.99808773  0.83904046
   0.49295471  0.33759848  0.49705745
   0.49318051  0.33688272  0.99623476
   0.49580769  0.83607778  0.49934326
   0.49625118  0.83581661  0.99500518
   0.99168952  0.33713032  0.49817106
   0.99633756  0.33841751  0.99615591
   0.99466765  0.83809294  0.49787172
   0.99774081  0.83746466  0.99529266
   0.16701200  0.00240343  0.00364407
   0.16947248  0.00417185  0.50457256
   0.17017200  0.50517473  0.00242843
   0.16864466  0.50392599  0.50222158
   0.66786158  0.00570290  0.00486698
   0.66853112  0.00426959  0.50097245
   0.66999497  0.50096756  0.00377116
   0.66852769  0.50040634  0.50119981
   0.00526344  0.00415394  0.16246024
   0.00294236  0.00425074  0.66196528
   0.00243650  0.50557564  0.16334983
   0.00513052  0.50191823  0.66608697
   0.50196568  0.00588314  0.16462823
   0.50735185  0.00104167  0.66234981
   0.49958442  0.50253678  0.16307532
   0.49904864  0.50358493  0.66404956
   0.00439086  0.16520073  0.00297048
   0.00614362  0.16486745  0.50103753
   0.99997309  0.66620403  0.00447256
   0.00525171  0.66499086  0.50512736
   0.50518881  0.16207803  0.00228992
   0.50412805  0.16429110  0.50264411
   0.50273964  0.66339303  0.00935803
   0.50249007  0.66103118  0.50517695
   0.25115613  0.25080235  0.24790374
   0.24616983  0.24762870  0.74845890
   0.24644415  0.75134908  0.24780980
   0.25028912  0.74919528  0.74987699
   0.75038245  0.24857300  0.24565560
   0.74805258  0.25236770  0.74664140
   0.74738426  0.74857051  0.24745659
   0.75004183  0.74691548  0.74748820
   0.33797702  0.49348184  0.50023041
   0.33748146  0.49975952  0.99690235
   0.33960491  0.99794683  0.49367960
   0.33736435  0.99624278  0.99643061
   0.83751202  0.50193259  0.49620659
   0.83979683  0.49484945  0.99876764
   0.83856436  0.99558173  0.49973683
   0.84100424  0.99678554  0.99699110
   0.30431671  0.30639533  0.31209706
   0.30685268  0.31014482  0.81024747
   0.30810282  0.81025830  0.30391109
   0.30949134  0.81291487  0.80447308
   0.80776564  0.30799995  0.31187792
   0.80643503  0.30996478  0.81017913
   0.80208165  0.81440174  0.30689663
   0.80846397  0.81297157  0.80984025
   0.19205464  0.18802284  0.19123342
   0.19014280  0.19085162  0.68633920
   0.19244590  0.68717760  0.19046610
   0.19021922  0.68715155  0.68782006
   0.69019196  0.18728993  0.19086579
   0.68946769  0.18735099  0.68990730
   0.69024419  0.68998468  0.18897171
   0.68896784  0.68698259  0.69232719
Direct configuration=     5
   0.15855530  0.40572871  0.40248374
   0.15846789  0.40850187  0.89709492
   0.15609795  0.89982356  0.40418094
   0.15675573  0.90665484  0.90306986
   0.65456837  0.40272397  0.40499333
   0.65794725  0.40212466  0.90579165
   0.65926661  0.90407614  0.40514874
   0.65978549  0.89881317  0.90362967
   0.40314285  0.40078037  0.15707603
   0.39744861  0.39881104  0.65877984
   0.40121362  0.89601063  0.15815352
   0.39920629  0.90298150  0.66001985
   0.90391435  0.39917775  0.15571150
   0.90148631  0.39559178  0.66075209
   0.90218622  0.90695649  0.16273906
   0.89855595  0.90484734  0.65116097
   0.39794009  0.16016288  0.40194472
   0.40354799  0.15898862  0.90149965
   0.40002732  0.65306772  0.39915580
   0.40760196  0.65898329  0.89919277
   0.90835046  0.15048706  0.39855558
   0.90310486  0.16140129  0.89691514
   0.90040307  0.65306016  0.40439039
   0.89894082  0.65693092  0.90420952
   0.34586742  0.09638916  0.09474722
   0.34022813  0.09746146  0.59901740
   0.33927430  0.59660769  0.09999805
   0.33891646  0.59706254  0.59561358
   0.83913585  0.09800550  0.10088193
   0.84261036  0.09691171  0.59675213
   0.84521786  0.59693241  0.09971045
   0.83864092  0.59380556  0.60073333
   0.09263839  0.09772910  0.34655285
   0.10109400  0.09728109  0.83895027
   0.09733632  0.59646066  0.34664896
   0.09193234  0.59740997  0.85058013
   0.59939411  0.09856159  0.34358163
   0.60022639  0.09768304  0.84550913
   0.59835718  0.59914006  0.34506498
   0.59957723  0.59581038  0.84271425
   0.10243487  0.34150473  0.09285112
   0.09919681  0.33995816  0.60262560
   0.09932206  0.84244517  0.09711958
   0.10127092  0.84547339  0.59538453
   0.59981508  0.34287806  0.09574302
   0.59983118  0.34292654  0.59997792
   0.59990259  0.84378197  0.09981242
   0.60194107  0.84076962  0.59689390
   0.49373178  0.49929279  0.33773641
   0.49595698  0.49882110  0.83194229
   0.49462892  0.99539415  0.33671408
   0.49889390  0.99939479  0.83302956
   0.99853818  0.49814827  0.33514018
   0.99799462  0.50167084  0.83862277
   0.98533458  0.99899488  0.34034449
   0.99415834  0.99832283  0.83975406
   0.49246286  0.33785443  0.49695212
   0.49276128  0.33691495  0.99584818
   0.49625148  0.83583194  0.49998448
   0.49684495  0.83550419  0.99422437
   0.99078585  0.33725274  0.49842356
   0.99696655  0.33894600  0.99574291
   0.99474355  0.83850789  0.49802985
   0.99880932  0.83769132  0.99461357
   0.16578145  0.00223142  0.00386591
   0.16903362  0.00457259  0.50509727
   0.16995058  0.50590901  0.00226319
   0.16793684  0.50423838  0.50199693
   0.66691127  0.00659520  0.00550187
   0.66779580  0.00470173  0.50032853
   0.66972917  0.50031724  0.00404492
   0.66778220  0.49957712  0.50063208
   0.00584519  0.00462285  0.16184888
   0.00277052  0.00474204  0.66119323
   0.00211386  0.50649296  0.16301984
   0.00567290  0.50164089  0.66666324
   0.50147536  0.00689798  0.16471621
   0.50862528  0.00048512  0.66168843
   0.49831438  0.50245647  0.16268224
   0.49759261  0.50385069  0.66394500
   0.00469129  0.16548595  0.00303092
   0.00701699  0.16502950  0.50047456
   0.99882936  0.66681663  0.00503938
   0.00582452  0.66518772  0.50591714
   0.50575169  0.16134460  0.00213851
   0.50433742  0.16427158  0.50260663
   0.50250410  0.66306262  0.01151987
   0.50215864  0.65994920  0.50596870
   0.25217923  0.25137442  0.24751543
   0.24559433  0.24720347  0.74831725
   0.24592967  0.75212901  0.24741467
   0.25102710  0.74923269  0.75013880
   0.75119613  0.24845564  0.24457614
   0.74806552  0.25347338  0.74585529
   0.74719774  0.74845820  0.24696508
   0.75075334  0.74626005  0.74702446
   0.33785932  0.49201776  0.50098306
   0.33721564  0.50036789  0.99655653
   0.34003283  0.99795439  0.49228410
   0.33706670  0.99568359  0.99593381
   0.83723546  0.50323768  0.49564487
   0.84028432  0.49383376  0.99904994
   0.83863131  0.99481474  0.50032429
   0.84188453  0.99642027  0.99668601
   0.30374586  0.30543515  0.31297445
   0.30707858  0.31035157  0.81049841
   0.30874325  0.81051507  0.30212743
   0.31059369  0.81405026  0.80287975
   0.80830747  0.30750644  0.31266023
   0.80653047  0.31013506  0.81042594
   0.80077654  0.81600726  0.30606085
   0.80923571  0.81409805  0.80994027
   0.19241391  0.18774694  0.19200938
   0.18987172  0.19147169  0.68550960
   0.19290249  0.68662432  0.19099777
   0.18996408  0.68661183  0.68751416
   0.68992025  0.18678036  0.19151180
   0.68899098  0.18686279  0.69025267
   0.68999819  0.69032663  0.18900413
   0.68831201  0.68635695  0.69345095
Direct configuration=     6
   0.15869391  0.40619107  0.40220448
   0.15861292  0.40965504  0.89549272
   0.15565908  0.89888072  0.40426091
   0.15650331  0.90734475  0.90287824
   0.65376702  0.40245442  0.40528414
   0.65794847  0.40172834  0.90627358
   0.65957443  0.90416240  0.40548690
   0.66021836  0.89763382  0.90361949
   0.40348344  0.40037768  0.15705301
   0.39643958  0.39795652  0.65914468
   0.40115379  0.89450413  0.15831268
   0.39866432  0.90317784  0.66063867
   0.90447295  0.39840052  0.15536351
   0.90146782  0.39396691  0.66159918
   0.90232139  0.90808105  0.16408481
   0.89781277  0.90545083  0.64970327
   0.39706339  0.16083781  0.40187594
   0.40401160  0.15942021  0.90128645
   0.39961768  0.65206745  0.39837428
   0.40904470  0.65943639  0.89842097
   0.90991801  0.14889897  0.39764929
   0.90347551  0.16240145  0.89561945
   0.90006829  0.65209243  0.40487626
   0.89825687  0.65688624  0.90467216
   0.34693516  0.09630967  0.09430029
   0.33998167  0.09764784  0.59956430
   0.33877452  0.59658471  0.10078836
   0.33830163  0.59714087  0.59535409
   0.83862652  0.09833455  0.10187101
   0.84290797  0.09698766  0.59676519
   0.84612605  0.59700077  0.10047234
   0.83798829  0.59308625  0.60174056
   0.09122698  0.09792623  0.34721276
   0.10165972  0.09740996  0.83780059
   0.09701140  0.59638893  0.34735877
   0.09031728  0.59760292  0.85221602
   0.59953087  0.09898296  0.34356980
   0.60060789  0.09786967  0.84595499
   0.59826351  0.59969803  0.34539807
   0.59978563  0.59553695  0.84250972
   0.10336476  0.34096859  0.09188204
   0.09927726  0.33910297  0.60399897
   0.09947906  0.84212675  0.09720524
   0.10190003  0.84589606  0.59503938
   0.60008444  0.34265657  0.09549059
   0.60007747  0.34273543  0.60074840
   0.60018141  0.84382381  0.10052500
   0.60271715  0.84005922  0.59692156
   0.49355740  0.49973868  0.33794002
   0.49631677  0.49917213  0.83077277
   0.49466588  0.99491277  0.33671382
   0.49998728  0.99987877  0.83210817
   0.99953526  0.49833144  0.33473436
   0.99884081  0.50271772  0.83904943
   0.98312815  0.99935869  0.34119504
   0.99407695  0.99856274  0.84043879
   0.49197586  0.33809972  0.49685340
   0.49234470  0.33694940  0.99546239
   0.49668764  0.83558038  0.50062004
   0.49743292  0.83520256  0.99345704
   0.98989462  0.33738356  0.49867178
   0.99759556  0.33946403  0.99533024
   0.99482205  0.83890737  0.49818820
   0.99985452  0.83791991  0.99395243
   0.16457976  0.00206704  0.00407849
   0.16860045  0.00496736  0.50560776
   0.16972116  0.50663675  0.00210425
   0.16723984  0.50453892  0.50178678
   0.66598760  0.00746526  0.00613316
   0.66707987  0.00512664  0.49969636
   0.66946725  0.49967446  0.00431814
   0.66704799  0.49876254  0.50007664
   0.00641402  0.00509397  0.16125696
   0.00260229  0.00522725  0.66044310
   0.00181061  0.50739113  0.16269697
   0.00620711  0.50136458  0.66724127
   0.50099520  0.00788999  0.16480422
   0.50988251  0.99994011  0.66103527
   0.49706604  0.50236866  0.16231927
   0.49615106  0.50410651  0.66384096
   0.00498677  0.16577674  0.00308167
   0.00787615  0.16518696  0.49991880
   0.99770423  0.66742952  0.00560087
   0.00638112  0.66537447  0.50670647
   0.50630621  0.16063544  0.00198963
   0.50453891  0.16425594  0.50256835
   0.50227521  0.66272680  0.01365037
   0.50182389  0.65889064  0.50674727
   0.25317615  0.25192272  0.24710621
   0.24504376  0.24680318  0.74820715
   0.24541543  0.75290711  0.24702076
   0.25174405  0.74924883  0.75037760
   0.75202352  0.24835816  0.24352486
   0.74807262  0.25456598  0.74506943
   0.74702498  0.74837235  0.24649283
   0.75148688  0.74563520  0.74659157
   0.33773893  0.49056874  0.50172423
   0.33696160  0.50097546  0.99620773
   0.34046094  0.99796341  0.49090533
   0.33678704  0.99512649  0.99543918
   0.83695323  0.50451812  0.49509381
   0.84076874  0.49282649  0.99933477
   0.83868610  0.99406181  0.50089828
   0.84275385  0.99606835  0.99638738
   0.30319127  0.30452131  0.31384746
   0.30728235  0.31053574  0.81073602
   0.30935792  0.81075696  0.30039497
   0.31166907  0.81516464  0.80134017
   0.80883730  0.30700194  0.31341787
   0.80660923  0.31030173  0.81067392
   0.79949645  0.81757525  0.30523297
   0.80999501  0.81518446  0.81001387
   0.19277646  0.18747064  0.19276939
   0.18961135  0.19205042  0.68468613
   0.19333455  0.68607402  0.19152400
   0.18970892  0.68609305  0.68723683
   0.68964344  0.18627956  0.19213626
   0.68853935  0.18638357  0.69059122
   0.68975353  0.69063757  0.18902963
   0.68767152  0.68572899  0.69454518
Direct configuration=     7
   0.15882068  0.40663480  0.40194944
   0.15876473  0.41078808  0.89392996
   0.15523139  0.89796295  0.40432422
   0.15627560  0.90801374  0.90267417
   0.65298887  0.40217701  0.40556353
   0.65794639  0.40133962  0.90673875
   0.65986385  0.90425291  0.40581955
   0.66062997  0.89648929  0.90362334
   0.40380174  0.39996805  0.15703571
   0.39545485  0.39712100  0.65949131
   0.40112697  0.89304786  0.15841802
   0.39816746  0.90340298  0.66119908
   0.90502558  0.39763285  0.15503236
   0.90146247  0.39238186  0.66242161
   0.90245474  0.90918866  0.16541023
   0.89708610  0.90604016  0.64828301
   0.39621771  0.16147107  0.40182949
   0.40446712  0.15984389  0.90107260
   0.39920203  0.65109013  0.39760331
   0.41045750  0.65989634  0.89765954
   0.91140848  0.14737418  0.39677219
   0.90385060  0.16337142  0.89436175
   0.89971896  0.65116769  0.40534715
   0.89756579  0.65685771  0.90513415
   0.34796715  0.09622339  0.09387289
   0.33976058  0.09782583  0.60008475
   0.33828988  0.59655529  0.10155112
   0.33768516  0.59720522  0.59509546
   0.83814845  0.09865917  0.10281982
   0.84319762  0.09707228  0.59677260
   0.84699846  0.59707033  0.10123536
   0.83735370  0.59236280  0.60274225
   0.08988640  0.09810349  0.34783935
   0.10220411  0.09754868  0.83667597
   0.09669500  0.59633041  0.34805371
   0.08874990  0.59782690  0.85380309
   0.59964274  0.09939676  0.34357207
   0.60098868  0.09803920  0.84639910
   0.59816322  0.60024403  0.34572816
   0.59998669  0.59524898  0.84233459
   0.10429277  0.34044140  0.09092821
   0.09932617  0.33830454  0.60532431
   0.09963587  0.84180768  0.09729906
   0.10252063  0.84630768  0.59470345
   0.60034671  0.34242649  0.09525041
   0.60029988  0.34254739  0.60150889
   0.60044524  0.84388221  0.10121653
   0.60347199  0.83936432  0.59695610
   0.49338677  0.50016530  0.33812304
   0.49666574  0.49952049  0.82962937
   0.49469800  0.99444314  0.33672551
   0.50107080  0.00035346  0.83119762
   0.00051697  0.49851196  0.33433234
   0.99965970  0.50375118  0.83945588
   0.98096798  0.99969656  0.34202028
   0.99398998  0.99880886  0.84108852
   0.49149462  0.33833128  0.49676238
   0.49193119  0.33698632  0.99507719
   0.49711478  0.83532159  0.50124895