 120 120   0   0
  0.7185655E+01  0.1015270E-08  0.1077636E-08  0.1040838E-08  0.5000000E-15
   1.0000000000000000E-004
  CAR 
 unknown system                          
     14.12443979    -12.17571772  301      8.09175068      1.00000000
    -12.176  0.0000E+00  0.0000E+00
    -12.088  0.0000E+00  0.0000E+00
    -12.000  0.0000E+00  0.0000E+00
    -11.913  0.0000E+00  0.0000E+00
    -11.825  0.0000E+00  0.0000E+00
    -11.737  0.0000E+00  0.0000E+00
    -11.650  0.0000E+00  0.0000E+00
    -11.562  0.0000E+00  0.0000E+00
    -11.474  0.0000E+00  0.0000E+00
    -11.387  0.0000E+00  0.0000E+00
    -11.299  0.0000E+00  0.0000E+00
    -11.211  0.0000E+00  0.0000E+00
    -11.124  0.0000E+00  0.0000E+00
    -11.036  0.0000E+00  0.0000E+00
    -10.948  0.5313E-03  0.5646E-05
    -10.861  0.7471E-02  0.2977E-03
    -10.773  0.2245E-01  0.1550E-02
    -10.685  0.1210E+00  0.8643E-02
    -10.598  0.1373E-01  0.1248E-01
    -10.510  0.3865E-02  0.1321E-01
    -10.422  0.8442E-01  0.1418E-01
    -10.335  0.1770E+00  0.3128E-01
    -10.247  0.1119E+00  0.4250E-01
    -10.159  0.2345E-01  0.5308E-01
    -10.072  0.0000E+00  0.5333E-01
     -9.984  0.0000E+00  0.5333E-01
     -9.896  0.0000E+00  0.5333E-01
     -9.809  0.0000E+00  0.5333E-01
     -9.721  0.0000E+00  0.5333E-01
     -9.633  0.0000E+00  0.5333E-01
     -9.546  0.0000E+00  0.5333E-01
     -9.458  0.0000E+00  0.5333E-01
     -9.370  0.0000E+00  0.5333E-01
     -9.283  0.0000E+00  0.5333E-01
     -9.195  0.0000E+00  0.5333E-01
     -9.107  0.0000E+00  0.5333E-01
     -9.020  0.0000E+00  0.5333E-01
     -8.932  0.1506E-02  0.5337E-01
     -8.844  0.1412E-01  0.5394E-01
     -8.757  0.4265E-01  0.5631E-01
     -8.669  0.1432E+00  0.6352E-01
     -8.581  0.1029E+00  0.7367E-01
     -8.494  0.5210E-01  0.8046E-01
     -8.406  0.5468E-01  0.8417E-01
     -8.318  0.7524E-01  0.9262E-01
     -8.231  0.9037E-01  0.9978E-01
     -8.143  0.3685E-01  0.1053E+00
     -8.055  0.2114E-03  0.1067E+00
     -7.968  0.2806E-01  0.1075E+00
     -7.880  0.6572E-01  0.1120E+00
     -7.792  0.4572E-01  0.1173E+00
     -7.705  0.2734E-01  0.1200E+00
     -7.617  0.1044E+00  0.1243E+00
     -7.529  0.1173E+00  0.1375E+00
     -7.442  0.4167E-01  0.1437E+00
     -7.354  0.1347E-01  0.1459E+00
     -7.266  0.1414E-01  0.1468E+00
     -7.179  0.8835E-01  0.1509E+00
     -7.091  0.6145E-01  0.1599E+00
     -7.003  0.2226E-01  0.1621E+00
     -6.916  0.3816E-01  0.1646E+00
     -6.828  0.5228E-01  0.1687E+00
     -6.740  0.8733E-01  0.1753E+00
     -6.653  0.7728E-01  0.1824E+00
     -6.565  0.1337E-01  0.1863E+00
     -6.477  0.3590E-01  0.1888E+00
     -6.390  0.4443E-01  0.1923E+00
     -6.302  0.5594E-01  0.1967E+00
     -6.214  0.6703E-01  0.2021E+00
     -6.127  0.5100E-01  0.2076E+00
     -6.039  0.3480E-01  0.2111E+00
     -5.951  0.7393E-02  0.2132E+00
     -5.864  0.0000E+00  0.2133E+00
     -5.776  0.2443E-01  0.2140E+00
     -5.688  0.9294E-01  0.2191E+00
     -5.601  0.4977E-01  0.2253E+00
     -5.513  0.3864E-01  0.2289E+00
     -5.425  0.9149E-01  0.2341E+00
     -5.338  0.1748E+00  0.2472E+00
     -5.250  0.1765E-01  0.2534E+00
     -5.162  0.7003E-01  0.2582E+00
     -5.075  0.1100E+00  0.2660E+00
     -4.987  0.1008E+00  0.2760E+00
     -4.899  0.3505E-01  0.2809E+00
     -4.812  0.1157E+00  0.2890E+00
     -4.724  0.3396E-01  0.2933E+00
     -4.636  0.4980E-01  0.2971E+00
     -4.549  0.4863E-01  0.3014E+00
     -4.461  0.7023E-01  0.3064E+00
     -4.373  0.6246E-01  0.3134E+00
     -4.286  0.2672E-01  0.3167E+00
     -4.198  0.1496E-01  0.3184E+00
     -4.110  0.7849E-02  0.3194E+00
     -4.023  0.3012E-02  0.3199E+00
     -3.935  0.4482E-03  0.3200E+00
     -3.847  0.0000E+00  0.3200E+00
     -3.760  0.6286E-03  0.3200E+00
     -3.672  0.1972E-01  0.3208E+00
     -3.584  0.2890E-01  0.3229E+00
     -3.497  0.4081E-01  0.3259E+00
     -3.409  0.4298E-01  0.3297E+00
     -3.321  0.4594E-01  0.3336E+00
     -3.234  0.5264E-01  0.3378E+00
     -3.146  0.6310E-01  0.3429E+00
     -3.058  0.8515E-01  0.3492E+00
     -2.971  0.6144E-01  0.3563E+00
     -2.883  0.6109E-01  0.3623E+00
     -2.795  0.4843E-01  0.3664E+00
     -2.708  0.7763E-01  0.3742E+00
     -2.620  0.1356E+00  0.3825E+00
     -2.532  0.5452E-01  0.3878E+00
     -2.445  0.8822E-01  0.3937E+00
     -2.357  0.4014E-01  0.4012E+00
     -2.269  0.1769E+00  0.4052E+00
     -2.182  0.7912E-01  0.4131E+00
     -2.094  0.1054E+00  0.4204E+00
     -2.006  0.1162E+00  0.4307E+00
     -1.919  0.8456E-01  0.4393E+00
     -1.831  0.1065E+00  0.4471E+00
     -1.743  0.1546E+00  0.4590E+00
     -1.656  0.1470E+00  0.4731E+00
     -1.568  0.9137E-01  0.4838E+00
     -1.480  0.8416E-01  0.4914E+00
     -1.393  0.7625E-01  0.4985E+00
     -1.305  0.4143E-01  0.5037E+00
     -1.217  0.5874E-01  0.5064E+00
     -1.130  0.1147E+00  0.5173E+00
     -1.042  0.1695E+00  0.5270E+00
     -0.954  0.1342E+00  0.5425E+00
     -0.867  0.7737E-01  0.5516E+00
     -0.779  0.7136E-01  0.5576E+00
     -0.691  0.1583E+00  0.5656E+00
     -0.604  0.1308E+00  0.5790E+00
     -0.516  0.7813E-01  0.5871E+00
     -0.428  0.7997E-01  0.5939E+00
     -0.341  0.9379E-01  0.6015E+00
     -0.253  0.8645E-01  0.6097E+00
     -0.165  0.6350E-01  0.6163E+00
     -0.078  0.1498E+00  0.6246E+00
      0.010  0.5884E-01  0.6286E+00
      0.098  0.2378E+00  0.6419E+00
      0.185  0.1487E+00  0.6608E+00
      0.273  0.7144E-01  0.6690E+00
      0.361  0.1238E+00  0.6773E+00
      0.448  0.7299E-01  0.6859E+00
      0.536  0.1172E+00  0.6947E+00
      0.624  0.1030E+00  0.7045E+00
      0.711  0.7574E-01  0.7119E+00
      0.799  0.9178E-01  0.7192E+00
      0.887  0.1041E+00  0.7274E+00
      0.974  0.1800E+00  0.7389E+00
      1.062  0.1474E+00  0.7536E+00
      1.150  0.1439E+00  0.7664E+00
      1.237  0.1492E+00  0.7794E+00
      1.325  0.6465E-01  0.7894E+00
      1.413  0.9045E-01  0.7947E+00
      1.500  0.9657E-01  0.8050E+00
      1.588  0.1192E+00  0.8143E+00
      1.676  0.2092E+00  0.8272E+00
      1.763  0.1173E+00  0.8404E+00
      1.851  0.1010E+00  0.8487E+00
      1.939  0.2213E+00  0.8594E+00
      2.026  0.2323E+00  0.8767E+00
      2.114  0.1211E+00  0.8921E+00
      2.202  0.1980E+00  0.9045E+00
      2.289  0.7275E-01  0.9167E+00
      2.377  0.1924E+00  0.9246E+00
      2.465  0.2229E+00  0.9402E+00
      2.552  0.1594E+00  0.9561E+00
      2.640  0.1496E+00  0.9693E+00
      2.728  0.1465E+00  0.9834E+00
      2.815  0.3427E+00  0.9989E+00
      2.903  0.7109E-01  0.1008E+01
      2.991  0.1861E+00  0.1020E+01
      3.078  0.2177E+00  0.1037E+01
      3.166  0.1276E+00  0.1052E+01
      3.254  0.1718E+00  0.1066E+01
      3.341  0.1343E+00  0.1081E+01
      3.429  0.1184E+00  0.1092E+01
      3.517  0.9507E-01  0.1101E+01
      3.604  0.1080E+00  0.1110E+01
      3.692  0.1491E+00  0.1119E+01
      3.780  0.1977E+00  0.1136E+01
      3.867  0.1697E+00  0.1152E+01
      3.955  0.1203E+00  0.1165E+01
      4.043  0.9342E-01  0.1172E+01
      4.130  0.2792E+00  0.1189E+01
      4.218  0.1190E+00  0.1213E+01
      4.306  0.9063E-01  0.1220E+01
      4.393  0.1133E+00  0.1229E+01
      4.481  0.1379E+00  0.1240E+01
      4.569  0.1403E+00  0.1252E+01
      4.656  0.1004E+00  0.1263E+01
      4.744  0.8118E-01  0.1271E+01
      4.832  0.4464E-01  0.1276E+01
      4.919  0.1816E-01  0.1279E+01
      5.007  0.4480E-02  0.1280E+01
      5.095  0.1408E-02  0.1280E+01
      5.182  0.6574E-04  0.1280E+01
      5.270  0.0000E+00  0.1280E+01
      5.358  0.0000E+00  0.1280E+01
      5.445  0.0000E+00  0.1280E+01
      5.533  0.0000E+00  0.1280E+01
      5.621  0.0000E+00  0.1280E+01
      5.708  0.0000E+00  0.1280E+01
      5.796  0.0000E+00  0.1280E+01
      5.884  0.0000E+00  0.1280E+01
      5.971  0.0000E+00  0.1280E+01
      6.059  0.0000E+00  0.1280E+01
      6.147  0.0000E+00  0.1280E+01
      6.234  0.0000E+00  0.1280E+01
      6.322  0.0000E+00  0.1280E+01
      6.410  0.0000E+00  0.1280E+01
      6.497  0.0000E+00  0.1280E+01
      6.585  0.0000E+00  0.1280E+01
      6.673  0.0000E+00  0.1280E+01
      6.760  0.0000E+00  0.1280E+01
      6.848  0.0000E+00  0.1280E+01
      6.936  0.0000E+00  0.1280E+01
      7.023  0.0000E+00  0.1280E+01
      7.111  0.0000E+00  0.1280E+01
      7.199  0.0000E+00  0.1280E+01
      7.286  0.0000E+00  0.1280E+01
      7.374  0.0000E+00  0.1280E+01
      7.462  0.0000E+00  0.1280E+01
      7.549  0.0000E+00  0.1280E+01
      7.637  0.0000E+00  0.1280E+01
      7.725  0.0000E+00  0.1280E+01
      7.812  0.0000E+00  0.1280E+01
      7.900  0.0000E+00  0.1280E+01
      7.988  0.0000E+00  0.1280E+01
      8.075  0.0000E+00  0.1280E+01
      8.163  0.1588E-02  0.1280E+01
      8.251  0.1156E-01  0.1281E+01
      8.338  0.3119E-01  0.1282E+01
      8.426  0.1051E+00  0.1288E+01
      8.514  0.7036E-01  0.1297E+01
      8.601  0.1413E+00  0.1306E+01
      8.689  0.6845E-01  0.1314E+01
      8.777  0.6493E-01  0.1320E+01
      8.864  0.5953E-01  0.1325E+01
      8.952  0.8696E-01  0.1332E+01
      9.040  0.9254E-01  0.1341E+01
      9.127  0.9943E-01  0.1349E+01
      9.215  0.1101E+00  0.1358E+01
      9.303  0.9533E-01  0.1368E+01
      9.390  0.8644E-01  0.1375E+01
      9.478  0.9666E-01  0.1384E+01
      9.566  0.8993E-01  0.1392E+01
      9.653  0.1218E+00  0.1400E+01
      9.741  0.1481E+00  0.1413E+01
      9.829  0.6049E-01  0.1422E+01
      9.916  0.2011E+00  0.1432E+01
     10.004  0.1004E+00  0.1443E+01
     10.092  0.9576E-01  0.1451E+01
     10.179  0.7652E-01  0.1457E+01
     10.267  0.8705E-01  0.1465E+01
     10.355  0.8168E-01  0.1474E+01
     10.442  0.8505E-01  0.1481E+01
     10.530  0.1410E+00  0.1490E+01
     10.618  0.6793E-01  0.1500E+01
     10.705  0.6467E-01  0.1505E+01
     10.793  0.6209E-01  0.1511E+01
     10.881  0.8507E-01  0.1517E+01
     10.968  0.8623E-01  0.1525E+01
     11.056  0.7016E-01  0.1532E+01
     11.144  0.5706E-01  0.1538E+01
     11.231  0.8694E-01  0.1544E+01
     11.319  0.9221E-01  0.1552E+01
     11.407  0.9038E-01  0.1560E+01
     11.494  0.7968E-01  0.1568E+01
     11.582  0.6769E-01  0.1574E+01
     11.670  0.6439E-01  0.1580E+01
     11.757  0.7213E-01  0.1585E+01
     11.845  0.8756E-01  0.1593E+01
     11.933  0.8917E-01  0.1600E+01
     12.020  0.7989E-01  0.1608E+01
     12.108  0.6266E-01  0.1614E+01
     12.196  0.9941E-01  0.1620E+01
     12.283  0.1656E+00  0.1628E+01
     12.371  0.1624E+00  0.1642E+01
     12.459  0.4299E-01  0.1650E+01
     12.546  0.6131E-01  0.1654E+01
     12.634  0.1310E+00  0.1665E+01
     12.722  0.9528E-01  0.1673E+01
     12.809  0.6458E-02  0.1680E+01
     12.897  0.1816E+00  0.1684E+01
     12.985  0.0000E+00  0.1687E+01
     13.072  0.0000E+00  0.1687E+01
     13.160  0.0000E+00  0.1687E+01
     13.248  0.0000E+00  0.1687E+01
     13.335  0.0000E+00  0.1687E+01
     13.423  0.0000E+00  0.1687E+01
     13.511  0.0000E+00  0.1687E+01
     13.598  0.0000E+00  0.1687E+01
     13.686  0.0000E+00  0.1687E+01
     13.774  0.0000E+00  0.1687E+01
     13.861  0.0000E+00  0.1687E+01
     13.949  0.0000E+00  0.1687E+01
     14.037  0.0000E+00  0.1687E+01
     14.124  0.0000E+00  0.1687E+01
