       N       E                     dE             d eps       ncg     rms          rms(c)
DAV:   1     0.155421446366E+04    0.15542E+04   -0.21990E+05  4048   0.179E+03
DAV:   2    -0.761184339213E+03   -0.23154E+04   -0.21746E+04  4904   0.317E+02
DAV:   3    -0.913876916260E+03   -0.15269E+03   -0.15011E+03  4920   0.711E+01
DAV:   4    -0.917625860389E+03   -0.37489E+01   -0.37248E+01  4840   0.114E+01
DAV:   5    -0.917735187307E+03   -0.10933E+00   -0.10908E+00  4824   0.186E+00    0.421E+01
RMM:   6    -0.866227556999E+03    0.51508E+02   -0.77925E+01  4048   0.128E+01    0.221E+01
RMM:   7    -0.858275960571E+03    0.79516E+01   -0.60998E+01  4048   0.117E+01    0.860E+00
RMM:   8    -0.857964568146E+03    0.31139E+00   -0.10292E+01  4048   0.513E+00    0.339E+00
RMM:   9    -0.857353848721E+03    0.61072E+00   -0.30949E+00  4048   0.272E+00    0.960E-01
RMM:  10    -0.857367954691E+03   -0.14106E-01   -0.42737E-01  4182   0.113E+00    0.782E-01
RMM:  11    -0.857349499980E+03    0.18455E-01   -0.71878E-02  4048   0.480E-01    0.147E-01
RMM:  12    -0.857351419341E+03   -0.19194E-02   -0.16233E-02  4082   0.220E-01    0.136E-01
RMM:  13    -0.857350976089E+03    0.44325E-03   -0.35331E-03  4200   0.947E-02    0.514E-02
RMM:  14    -0.857351015992E+03   -0.39903E-04   -0.12855E-03  4076   0.555E-02    0.133E-02
RMM:  15    -0.857351027453E+03   -0.11460E-04   -0.17620E-04  4229   0.242E-02    0.106E-02
RMM:  16    -0.857351028842E+03   -0.13895E-05   -0.44283E-05  4248   0.105E-02    0.579E-03
RMM:  17    -0.857351028997E+03   -0.15530E-06   -0.98292E-06  3958   0.532E-03
   1 F= -.85735103E+03 E0= -.85735103E+03  d E =-.857351E+03
       N       E                     dE             d eps       ncg     rms          rms(c)
DAV:   1    -0.881512579182E+03   -0.24162E+02   -0.27029E+03  4425   0.106E+02    0.347E+01
RMM:   2    -0.869016181199E+03    0.12496E+02   -0.12278E+02  4048   0.224E+01    0.148E+01
RMM:   3    -0.862999930198E+03    0.60163E+01   -0.22411E+01  4048   0.914E+00    0.803E+00
RMM:   4    -0.862188660856E+03    0.81127E+00   -0.54349E+00  4054   0.429E+00    0.340E+00
RMM:   5    -0.862209617282E+03   -0.20956E-01   -0.67556E-01  4137   0.160E+00    0.134E+00
RMM:   6    -0.862219041387E+03   -0.94241E-02   -0.14960E-01  4139   0.700E-01    0.386E-01
RMM:   7    -0.862220925662E+03   -0.18843E-02   -0.29828E-02  4148   0.313E-01    0.170E-01
RMM:   8    -0.862221624421E+03   -0.69876E-03   -0.71155E-03  4295   0.147E-01    0.454E-02
RMM:   9    -0.862221743086E+03   -0.11867E-03   -0.12948E-03  4195   0.634E-02    0.112E-02
RMM:  10    -0.862221767013E+03   -0.23927E-04   -0.27296E-04  4190   0.295E-02    0.914E-03
RMM:  11    -0.862221772501E+03   -0.54877E-05   -0.67561E-05  4056   0.144E-02    0.332E-03
RMM:  12    -0.862221774137E+03   -0.16365E-05   -0.17480E-05  3762   0.719E-03    0.321E-03
RMM:  13    -0.862221774594E+03   -0.45649E-06   -0.39902E-06  3180   0.350E-03
   2 F= -.86222177E+03 E0= -.86222177E+03  d E =-.487075E+01
       N       E                     dE             d eps       ncg     rms          rms(c)
DAV:   1    -0.877987720159E+03   -0.15766E+02   -0.57513E+02  4362   0.496E+01    0.131E+01
RMM:   2    -0.874904031127E+03    0.30837E+01   -0.20611E+01  4048   0.917E+00    0.666E+00
RMM:   3    -0.873553103972E+03    0.13509E+01   -0.55347E+00  4048   0.426E+00    0.254E+00
RMM:   4    -0.873525880623E+03    0.27223E-01   -0.66839E-01  4067   0.166E+00    0.157E+00
RMM:   5    -0.873528840743E+03   -0.29601E-02   -0.13519E-01  4083   0.699E-01    0.556E-01
RMM:   6    -0.873529506970E+03   -0.66623E-03   -0.36392E-02  4090   0.342E-01    0.407E-01
RMM:   7    -0.873529908482E+03   -0.40151E-03   -0.67906E-03  4151   0.155E-01    0.445E-02
RMM:   8    -0.873530039478E+03   -0.13100E-03   -0.17953E-03  4160   0.732E-02    0.777E-02
RMM:   9    -0.873530063272E+03   -0.23794E-04   -0.30297E-04  4132   0.322E-02    0.211E-02
RMM:  10    -0.873530070789E+03   -0.75171E-05   -0.86028E-05  4250   0.154E-02    0.121E-02
RMM:  11    -0.873530071457E+03   -0.66810E-06   -0.13246E-05  3792   0.663E-03    0.384E-03
RMM:  12    -0.873530071723E+03   -0.26585E-06   -0.39293E-06  3115   0.340E-03
   3 F= -.87353007E+03 E0= -.87353007E+03  d E =-.161790E+02
       N       E                     dE             d eps       ncg     rms          rms(c)
DAV:   1    -0.876240333648E+03   -0.27103E+01   -0.42896E+02  4384   0.446E+01    0.721E+00
RMM:   2    -0.875900889275E+03    0.33944E+00   -0.81102E+00  4048   0.600E+00    0.351E+00
RMM:   3    -0.875667517754E+03    0.23337E+00   -0.17008E+00  4048   0.245E+00    0.171E+00
RMM:   4    -0.875662791664E+03    0.47261E-02   -0.26922E-01  4082   0.990E-01    0.850E-01
RMM:   5    -0.875665277121E+03   -0.24855E-02   -0.60627E-02  4137   0.453E-01    0.193E-01
RMM:   6    -0.875666132187E+03   -0.85507E-03   -0.13884E-02  4133   0.209E-01    0.129E-01
RMM:   7    -0.875666445117E+03   -0.31293E-03   -0.29627E-03  4211   0.984E-02    0.257E-02
RMM:   8    -0.875666495602E+03   -0.50485E-04   -0.60087E-04  4234   0.434E-02    0.201E-02
RMM:   9    -0.875666510052E+03   -0.14449E-04   -0.13386E-04  4148   0.207E-02    0.427E-03
RMM:  10    -0.875666512481E+03   -0.24288E-05   -0.29745E-05  4023   0.966E-03    0.534E-03
RMM:  11    -0.875666513147E+03   -0.66594E-06   -0.79212E-06  3502   0.498E-03
   4 F= -.87566651E+03 E0= -.87566651E+03  d E =-.213644E+01
       N       E                     dE             d eps       ncg     rms          rms(c)
DAV:   1    -0.876671800419E+03   -0.10053E+01   -0.53587E+01  4376   0.158E+01    0.215E+00
RMM:   2    -0.876617556753E+03    0.54244E-01   -0.92443E-01  4048   0.202E+00    0.124E+00
RMM:   3    -0.876584751716E+03    0.32805E-01   -0.26442E-01  4048   0.916E-01    0.294E-01
RMM:   4    -0.876585885073E+03   -0.11334E-02   -0.30023E-02  4079   0.350E-01    0.184E-01
RMM:   5    -0.876586161888E+03   -0.27682E-03   -0.82535E-03  4085   0.168E-01    0.521E-02
RMM:   6    -0.876586247264E+03   -0.85376E-04   -0.18477E-03  4147   0.769E-02    0.447E-02
RMM:   7    -0.876586273364E+03   -0.26099E-04   -0.40526E-04  4107   0.371E-02    0.778E-03
RMM:   8    -0.876586279691E+03   -0.63270E-05   -0.90781E-05  4209   0.167E-02    0.747E-03
RMM:   9    -0.876586281346E+03   -0.16554E-05   -0.19860E-05  4018   0.781E-03    0.192E-03
RMM:  10    -0.876586281610E+03   -0.26352E-06   -0.40517E-06  3114   0.355E-03
   5 F= -.87658628E+03 E0= -.87658628E+03  d E =-.305621E+01
       N       E                     dE             d eps       ncg     rms          rms(c)
DAV:   1    -0.876612500893E+03   -0.26220E-01   -0.69047E+01  4228   0.177E+01    0.243E+00
RMM:   2    -0.876599040910E+03    0.13460E-01   -0.14205E+00  4048   0.245E+00    0.154E+00
RMM:   3    -0.876551114551E+03    0.47926E-01   -0.34282E-01  4048   0.108E+00    0.379E-01
RMM:   4    -0.876553991851E+03   -0.28773E-02   -0.41150E-02  4083   0.420E-01    0.283E-01
RMM:   5    -0.876554530912E+03   -0.53906E-03   -0.10426E-02  4075   0.194E-01    0.643E-02
RMM:   6    -0.876554628532E+03   -0.97619E-04   -0.22869E-03  4165   0.873E-02    0.659E-02
RMM:   7    -0.876554671716E+03   -0.43185E-04   -0.53227E-04  4102   0.414E-02    0.953E-03
RMM:   8    -0.876554677432E+03   -0.57153E-05   -0.11129E-04  4153   0.189E-02    0.115E-02
RMM:   9    -0.876554680113E+03   -0.26818E-05   -0.28178E-05  4086   0.923E-03    0.247E-03
RMM:  10    -0.876554680511E+03   -0.39715E-06   -0.47482E-06  3135   0.393E-03
   6 F= -.87655468E+03 E0= -.87655468E+03  d E =0.316011E-01
       N       E                     dE             d eps       ncg     rms          rms(c)
DAV:   1    -0.876841692478E+03   -0.28701E+00   -0.18378E+01  4252   0.911E+00    0.126E+00
RMM:   2    -0.876838800673E+03    0.28918E-02   -0.38178E-01  4048   0.127E+00    0.798E-01
RMM:   3    -0.876825915860E+03    0.12885E-01   -0.90189E-02  4048   0.555E-01    0.189E-01
RMM:   4    -0.876826693271E+03   -0.77741E-03   -0.11121E-02  4081   0.218E-01    0.136E-01
RMM:   5    -0.876826809488E+03   -0.11622E-03   -0.26647E-03  4080   0.992E-02    0.331E-02
RMM:   6    -0.876826843325E+03   -0.33837E-04   -0.57900E-04  4197   0.440E-02    0.304E-02
RMM:   7    -0.876826853081E+03   -0.97554E-05   -0.12710E-04  4082   0.206E-02    0.446E-03
RMM:   8    -0.876826854787E+03   -0.17060E-05   -0.28234E-05  4102   0.958E-03    0.559E-03
RMM:   9    -0.876826855463E+03   -0.67671E-06   -0.73601E-06  3464   0.470E-03
   7 F= -.87682686E+03 E0= -.87682686E+03  d E =-.240574E+00
       N       E                     dE             d eps       ncg     rms          rms(c)
DAV:   1    -0.877046388356E+03   -0.21953E+00   -0.34634E+01  4098   0.128E+01    0.158E+00
RMM:   2    -0.877041843993E+03    0.45444E-02   -0.58240E-01  4048   0.162E+00    0.959E-01
RMM:   3    -0.877028514583E+03    0.13329E-01   -0.14313E-01  4048   0.687E-01    0.236E-01
RMM:   4    -0.877029662417E+03   -0.11478E-02   -0.19789E-02  4119   0.272E-01    0.150E-01
RMM:   5    -0.877029799271E+03   -0.13685E-03   -0.48146E-03  4081   0.129E-01    0.361E-02
RMM:   6    -0.877029841869E+03   -0.42598E-04   -0.10134E-03  4162   0.566E-02    0.305E-02
RMM:   7    -0.877029856192E+03   -0.14323E-04   -0.22985E-04  4116   0.268E-02    0.567E-03
RMM:   8    -0.877029859170E+03   -0.29778E-05   -0.44043E-05  4169   0.118E-02    0.486E-03
RMM:   9    -0.877029859998E+03   -0.82849E-06   -0.11565E-05  3867   0.574E-03    0.150E-03
RMM:  10    -0.877029860121E+03   -0.12264E-06   -0.19952E-06  2727   0.251E-03
   8 F= -.87702986E+03 E0= -.87702986E+03  d E =-.203005E+00
       N       E                     dE             d eps       ncg     rms          rms(c)
DAV:   1    -0.877041208436E+03   -0.11348E-01   -0.11748E+00  4272   0.235E+00    0.292E-01
RMM:   2    -0.877041072065E+03    0.13637E-03   -0.19849E-02  4048   0.300E-01    0.177E-01
RMM:   3    -0.877040611223E+03    0.46084E-03   -0.47743E-03  4048   0.126E-01    0.436E-02
RMM:   4    -0.877040650465E+03   -0.39242E-04   -0.67292E-04  4122   0.499E-02    0.267E-02
RMM:   5    -0.877040654482E+03   -0.40178E-05   -0.15953E-04  4088   0.235E-02    0.633E-03
RMM:   6    -0.877040656157E+03   -0.16744E-05   -0.33032E-05  4167   0.102E-02    0.522E-03
RMM:   7    -0.877040656654E+03   -0.49726E-06   -0.73369E-06  3626   0.485E-03
   9 F= -.87704066E+03 E0= -.87704066E+03  d E =-.213801E+00
       N       E                     dE             d eps       ncg     rms          rms(c)
DAV:   1    -0.877203500655E+03   -0.16284E+00   -0.19936E+01  4068   0.980E+00    0.102E+00
RMM:   2    -0.877201889947E+03    0.16107E-02   -0.24806E-01  4048   0.106E+00    0.593E-01
RMM:   3    -0.877197940247E+03    0.39497E-02   -0.68539E-02  4048   0.464E-01    0.148E-01
RMM:   4    -0.877198581191E+03   -0.64094E-03   -0.98903E-03  4115   0.185E-01    0.980E-02
RMM:   5    -0.877198719663E+03   -0.13847E-03   -0.26183E-03  4093   0.913E-02    0.276E-02
RMM:   6    -0.877198731756E+03   -0.12093E-04   -0.52058E-04  4138   0.403E-02    0.242E-02
RMM:   7    -0.877198742202E+03   -0.10446E-04   -0.12596E-04  4121   0.189E-02    0.533E-03
RMM:   8    -0.877198742573E+03   -0.37093E-06   -0.24142E-05  4134   0.859E-03    0.380E-03
RMM:   9    -0.877198742986E+03   -0.41290E-06   -0.66944E-06  3435   0.424E-03
  10 F= -.87719874E+03 E0= -.87719874E+03  d E =-.158086E+00
       N       E                     dE             d eps       ncg     rms          rms(c)
DAV:   1    -0.877200100975E+03   -0.13584E-02   -0.19659E-01  4592   0.973E-01    0.100E-01
RMM:   2    -0.877200084789E+03    0.16186E-04   -0.24373E-03  4048   0.105E-01    0.588E-02
RMM:   3    -0.877200044409E+03    0.40380E-04   -0.67801E-04  4048   0.461E-02    0.144E-02
RMM:   4    -0.877200050701E+03   -0.62922E-05   -0.98285E-05  4113   0.184E-02    0.961E-03
RMM:   5    -0.877200051894E+03   -0.11925E-05   -0.26288E-05  4086   0.912E-03    0.272E-03
RMM:   6    -0.877200052020E+03   -0.12599E-06   -0.52194E-06  3308   0.403E-03
  11 F= -.87720005E+03 E0= -.87720005E+03  d E =-.159395E+00
       N       E                     dE             d eps       ncg     rms          rms(c)
DAV:   1    -0.877252280192E+03   -0.52228E-01   -0.78567E+00  4132   0.605E+00    0.632E-01
RMM:   2    -0.877251326629E+03    0.95356E-03   -0.97546E-02  4048   0.652E-01    0.383E-01
RMM:   3    -0.877249678509E+03    0.16481E-02   -0.23967E-02  4048   0.275E-01    0.101E-01
RMM:   4    -0.877249806431E+03   -0.12792E-03   -0.30988E-03  4131   0.106E-01    0.578E-02
RMM:   5    -0.877249835483E+03   -0.29052E-04   -0.81339E-04  4071   0.505E-02    0.155E-02
RMM:   6    -0.877249840265E+03   -0.47816E-05   -0.16740E-04  4123   0.218E-02    0.112E-02
RMM:   7    -0.877249842558E+03   -0.22934E-05   -0.40527E-05  4099   0.108E-02    0.304E-03
RMM:   8    -0.877249842755E+03   -0.19721E-06   -0.71252E-06  3633   0.471E-03
  12 F= -.87724984E+03 E0= -.87724984E+03  d E =-.497907E-01
       N       E                     dE             d eps       ncg     rms          rms(c)
DAV:   1    -0.877250055960E+03   -0.21340E-03   -0.35200E-02  4736   0.405E-01    0.422E-02
RMM:   2    -0.877250050264E+03    0.56959E-05   -0.43819E-04  4048   0.436E-02    0.256E-02
RMM:   3    -0.877250042975E+03    0.72890E-05   -0.11127E-04  4048   0.186E-02    0.675E-03
RMM:   4    -0.877250043387E+03   -0.41187E-06   -0.14246E-05  4112   0.718E-03    0.399E-03
RMM:   5    -0.877250043362E+03    0.25384E-07   -0.39040E-06  3036   0.348E-03
  13 F= -.87725004E+03 E0= -.87725004E+03  d E =-.499913E-01
       N       E                     dE             d eps       ncg     rms          rms(c)
DAV:   1    -0.877255475759E+03   -0.54324E-02   -0.60147E+00  4114   0.532E+00    0.615E-01
RMM:   2    -0.877255992928E+03   -0.51717E-03   -0.10119E-01  4048   0.664E-01    0.391E-01
RMM:   3    -0.877253506276E+03    0.24867E-02   -0.24105E-02  4048   0.282E-01    0.951E-02
RMM:   4    -0.877253703470E+03   -0.19719E-03   -0.31324E-03  4098   0.111E-01    0.639E-02
RMM:   5    -0.877253726738E+03   -0.23268E-04   -0.84229E-04  4078   0.533E-02    0.157E-02
RMM:   6    -0.877253731306E+03   -0.45679E-05   -0.17660E-04  4140   0.236E-02    0.141E-02
RMM:   7    -0.877253734174E+03   -0.28679E-05   -0.43018E-05  4107   0.114E-02    0.301E-03
RMM:   8    -0.877253734389E+03   -0.21550E-06   -0.82255E-06  3806   0.516E-03
  14 F= -.87725373E+03 E0= -.87725373E+03  d E =-.369103E-02
       N       E                     dE             d eps       ncg     rms          rms(c)
DAV:   1    -0.877266653269E+03   -0.12919E-01   -0.13141E+00  4114   0.249E+00    0.286E-01
RMM:   2    -0.877266747499E+03   -0.94230E-04   -0.21899E-02  4048   0.309E-01    0.183E-01
RMM:   3    -0.877266200191E+03    0.54731E-03   -0.52622E-03  4048   0.131E-01    0.445E-02
RMM:   4    -0.877266242438E+03   -0.42247E-04   -0.67695E-04  4097   0.517E-02    0.306E-02
RMM:   5    -0.877266248410E+03   -0.59721E-05   -0.18448E-04  4078   0.249E-02    0.749E-03
RMM:   6    -0.877266249242E+03   -0.83204E-06   -0.39232E-05  4123   0.111E-02    0.701E-03
RMM:   7    -0.877266250059E+03   -0.81758E-06   -0.95350E-06  3878   0.534E-03
  15 F= -.87726625E+03 E0= -.87726625E+03  d E =-.162067E-01
       N       E                     dE             d eps       ncg     rms          rms(c)
DAV:   1    -0.877276318966E+03   -0.10070E-01   -0.12327E+00  4140   0.239E+00    0.330E-01
RMM:   2    -0.877275260450E+03    0.10585E-02   -0.27887E-02  4048   0.350E-01    0.191E-01
RMM:   3    -0.877274664106E+03    0.59634E-03   -0.83012E-03  4048   0.159E-01    0.549E-02
RMM:   4    -0.877274694909E+03   -0.30803E-04   -0.91932E-04  4065   0.627E-02    0.360E-02
RMM:   5    -0.877274703735E+03   -0.88266E-05   -0.28510E-04  4074   0.317E-02    0.900E-03
RMM:   6    -0.877274705202E+03   -0.14662E-05   -0.66061E-05  4104   0.146E-02    0.769E-03
RMM:   7    -0.877274706186E+03   -0.98401E-06   -0.14886E-05  4120   0.691E-03    0.164E-03
RMM:   8    -0.877274706388E+03   -0.20197E-06   -0.26869E-06  2817   0.295E-03
  16 F= -.87727471E+03 E0= -.87727471E+03  d E =-.845633E-02
       N       E                     dE             d eps       ncg     rms          rms(c)
DAV:   1    -0.877275474330E+03   -0.76814E-03   -0.57394E-02  4296   0.516E-01    0.712E-02
RMM:   2    -0.877275424380E+03    0.49950E-04   -0.12945E-03  4048   0.754E-02    0.413E-02
RMM:   3    -0.877275395830E+03    0.28550E-04   -0.38420E-04  4048   0.342E-02    0.118E-02
RMM:   4    -0.877275397189E+03   -0.13593E-05   -0.42345E-05  4064   0.135E-02    0.772E-03
RMM:   5    -0.877275397432E+03   -0.24305E-06   -0.13111E-05  4065   0.679E-03    0.193E-03
RMM:   6    -0.877275397506E+03   -0.73502E-07   -0.30337E-06  2905   0.312E-03
  17 F= -.87727540E+03 E0= -.87727540E+03  d E =-.914745E-02
       N       E                     dE             d eps       ncg     rms          rms(c)
DAV:   1    -0.877278155472E+03   -0.27580E-02   -0.18542E-01  4198   0.909E-01    0.137E-01
RMM:   2    -0.877277902844E+03    0.25263E-03   -0.36950E-03  4048   0.129E-01    0.790E-02
RMM:   3    -0.877277776351E+03    0.12649E-03   -0.11320E-03  4048   0.597E-02    0.189E-02
RMM:   4    -0.877277779836E+03   -0.34847E-05   -0.11793E-04  4065   0.226E-02    0.120E-02
RMM:   5    -0.877277781329E+03   -0.14930E-05   -0.35193E-05  4071   0.110E-02    0.317E-03
RMM:   6    -0.877277781605E+03   -0.27595E-06   -0.77950E-06  3916   0.498E-03
  18 F= -.87727778E+03 E0= -.87727778E+03  d E =-.238410E-02
       N       E                     dE             d eps       ncg     rms          rms(c)
DAV:   1    -0.877277782916E+03   -0.15872E-05   -0.70250E-05  4582   0.177E-02    0.285E-03
RMM:   2    -0.877277782883E+03    0.32810E-07   -0.19081E-06  2620   0.293E-03
  19 F= -.87727778E+03 E0= -.87727778E+03  d E =-.238538E-02
       N       E                     dE             d eps       ncg     rms          rms(c)
DAV:   1    -0.877278336946E+03   -0.55403E-03   -0.59259E-02  4088   0.509E-01    0.677E-02
RMM:   2    -0.877278328699E+03    0.82474E-05   -0.11416E-03  4048   0.699E-02    0.416E-02
RMM:   3    -0.877278296895E+03    0.31803E-04   -0.25740E-04  4048   0.298E-02    0.125E-02
RMM:   4    -0.877278299219E+03   -0.23240E-05   -0.33411E-05  4060   0.117E-02    0.858E-03
RMM:   5    -0.877278299475E+03   -0.25517E-06   -0.75607E-06  3887   0.527E-03
  20 F= -.87727830E+03 E0= -.87727830E+03  d E =-.516591E-03
       N       E                     dE             d eps       ncg     rms          rms(c)
DAV:   1    -0.877278313182E+03   -0.13963E-04   -0.11292E-03  4408   0.704E-02    0.976E-03
RMM:   2    -0.877278312519E+03    0.66274E-06   -0.21201E-05  4048   0.958E-03    0.570E-03
RMM:   3    -0.877278311637E+03    0.88221E-06   -0.48234E-06  3570   0.404E-03
  21 F= -.87727831E+03 E0= -.87727831E+03  d E =-.528754E-03
       N       E                     dE             d eps       ncg     rms          rms(c)
DAV:   1    -0.877278463379E+03   -0.15086E-03   -0.34870E-02  4155   0.389E-01    0.570E-02
RMM:   2    -0.877278481219E+03   -0.17839E-04   -0.84220E-04  4048   0.586E-02    0.366E-02
RMM:   3    -0.877278462109E+03    0.19110E-04   -0.16987E-04  4048   0.245E-02    0.926E-03
RMM:   4    -0.877278464184E+03   -0.20756E-05   -0.24569E-05  4072   0.988E-03    0.563E-03
RMM:   5    -0.877278464157E+03    0.27572E-07   -0.51768E-06  3263   0.433E-03
  22 F= -.87727846E+03 E0= -.87727846E+03  d E =-.152520E-03
       N       E                     dE             d eps       ncg     rms          rms(c)
DAV:   1    -0.877278528257E+03   -0.64073E-04   -0.42367E-03  4196   0.136E-01    0.198E-02
RMM:   2    -0.877278529971E+03   -0.17138E-05   -0.10135E-04  4048   0.204E-02    0.127E-02
RMM:   3    -0.877278527328E+03    0.26429E-05   -0.20172E-05  4048   0.843E-03    0.312E-03
RMM:   4    -0.877278527613E+03   -0.28492E-06   -0.28746E-06  2756   0.338E-03
  23 F= -.87727853E+03 E0= -.87727853E+03  d E =-.215976E-03
       N       E                     dE             d eps       ncg     rms          rms(c)
DAV:   1    -0.877278692627E+03   -0.16530E-03   -0.11828E-02  4144   0.231E-01    0.260E-02
RMM:   2    -0.877278698934E+03   -0.63066E-05   -0.18064E-04  4048   0.279E-02    0.157E-02
RMM:   3    -0.877278698116E+03    0.81771E-06   -0.38000E-05  4048   0.118E-02    0.436E-03
RMM:   4    -0.877278698597E+03   -0.48071E-06   -0.53101E-06  3330   0.451E-03
  24 F= -.87727870E+03 E0= -.87727870E+03  d E =-.170984E-03
       N       E                     dE             d eps       ncg     rms          rms(c)
DAV:   1    -0.877278712755E+03   -0.14639E-04   -0.17524E-03  4400   0.890E-02    0.102E-02
RMM:   2    -0.877278713704E+03   -0.94857E-06   -0.28595E-05  4048   0.111E-02    0.618E-03
RMM:   3    -0.877278713591E+03    0.11336E-06   -0.61908E-06  3908   0.472E-03
  25 F= -.87727871E+03 E0= -.87727871E+03  d E =-.185978E-03
       N       E                     dE             d eps       ncg     rms          rms(c)
DAV:   1    -0.877278770345E+03   -0.56641E-04   -0.36244E-03  4148   0.127E-01    0.181E-02
RMM:   2    -0.877278768062E+03    0.22831E-05   -0.54884E-05  4048   0.157E-02    0.103E-02
RMM:   3    -0.877278766904E+03    0.11580E-05   -0.14610E-05  4048   0.711E-03    0.259E-03
RMM:   4    -0.877278767069E+03   -0.16503E-06   -0.18489E-06  2601   0.271E-03
  26 F= -.87727877E+03 E0= -.87727877E+03  d E =-.534786E-04
       N       E                     dE             d eps       ncg     rms          rms(c)
DAV:   1    -0.877278768409E+03   -0.15052E-05   -0.12352E-04  4648   0.236E-02    0.336E-03
RMM:   2    -0.877278768388E+03    0.21705E-07   -0.21001E-06  2634   0.305E-03
  27 F= -.87727877E+03 E0= -.87727877E+03  d E =-.547971E-04
       N       E                     dE             d eps       ncg     rms          rms(c)
DAV:   1    -0.877278774210E+03   -0.58007E-05   -0.19895E-03  4228   0.931E-02    0.136E-02
RMM:   2    -0.877278774755E+03   -0.54532E-06   -0.47660E-05  4048   0.141E-02    0.866E-03
RMM:   3    -0.877278773498E+03    0.12577E-05   -0.10716E-05  4047   0.607E-03    0.204E-03
RMM:   4    -0.877278773600E+03   -0.10251E-06   -0.14205E-06  2595   0.243E-03
  28 F= -.87727877E+03 E0= -.87727877E+03  d E =-.521260E-05
       N       E                     dE             d eps       ncg     rms          rms(c)
DAV:   1    -0.877278779706E+03   -0.62082E-05   -0.32644E-04  4164   0.376E-02    0.535E-03
RMM:   2    -0.877278779844E+03   -0.13802E-06   -0.72017E-06  3771   0.544E-03
  29 F= -.87727878E+03 E0= -.87727878E+03  d E =-.114563E-04
       N       E                     dE             d eps       ncg     rms          rms(c)
DAV:   1    -0.877278783132E+03   -0.34262E-05   -0.87391E-04  4156   0.617E-02    0.782E-03
RMM:   2    -0.877278782675E+03    0.45739E-06   -0.16145E-05  4048   0.829E-03    0.457E-03
RMM:   3    -0.877278782091E+03    0.58400E-06   -0.37077E-06  3039   0.360E-03
  30 F= -.87727878E+03 E0= -.87727878E+03  d E =-.224676E-05
       N       E                     dE             d eps       ncg     rms          rms(c)
DAV:   1    -0.877278782751E+03   -0.76349E-07   -0.57234E-05  4360   0.159E-02    0.198E-03
RMM:   2    -0.877278782789E+03   -0.37969E-07   -0.89564E-07  2174   0.197E-03
  31 F= -.87727878E+03 E0= -.87727878E+03  d E =-.294508E-05
