 vasp.6.2.0 18Jan21 (build Feb 25 2021 07:51:20) complex                         
 executed on             LinuxPGI date 2022.05.17  21:13:51
 running on    1 total cores
 distrk:  each k-point on    1 cores,    1 groups
 distr:  one band on NCORE=   1 cores,    1 groups


--------------------------------------------------------------------------------------------------------


 INCAR:
   ALGO = Fast
   PREC = Accurate
   EDIFF = 1E-6
   ENCUT = 700
   ISMEAR = -5
   IBRION = 2
   ISIF = 4
   LREAL = Auto
   LWAVE = False
   LCHARGE = False
   NSW = 300
   SIGMA = 0.05

 POTCAR:    PAW_PBE B 06Sep2000                   
 POTCAR:    PAW_PBE C 08Apr2002                   
 POTCAR:    PAW_PBE B 06Sep2000                   
   VRHFIN =B: s2p1                                                                                  
   LEXCH  = PE                                                                                      
   EATOM  =    71.1703 eV,    5.2309 Ry                                                             
                                                                                                    
   TITEL  = PAW_PBE B 06Sep2000                                                                     
   LULTRA =        F    use ultrasoft PP ?                                                          
   IUNSCR =        1    unscreen: 0-lin 1-nonlin 2-no                                               
   RPACOR =    1.200    partial core radius                                                         
   POMASS =   10.811; ZVAL   =    3.000    mass and valenz                                          
   RCORE  =    1.700    outmost cutoff radius                                                       
   RWIGS  =    1.710; RWIGS  =    0.905    wigner-seitz radius (au A)                               
   ENMAX  =  318.614; ENMIN  =  238.960 eV                                                          
   ICORE  =        2    local potential                                                             
   LCOR   =        T    correct aug charges                                                         
   LPAW   =        T    paw PP                                                                      
   EAUG   =  535.514                                                                                
   DEXC   =    0.000                                                                                
   RMAX   =    1.732    core radius for proj-oper                                                   
   RAUG   =    1.300    factor for augmentation sphere                                              
   RDEP   =    1.757    radius for radial grids                                                     
   RDEPT  =    1.436    core radius for aug-charge                                                  
                                                                                                    
   Atomic configuration                                                                             
    4 entries                                                                                       
     n  l   j            E        occ.                                                              
     1  0  0.50      -180.5896   2.0000                                                             
     2  0  0.50        -9.4431   2.0000                                                             
     2  1  0.50        -3.6068   1.0000                                                             
     3  2  1.50        -4.0817   0.0000                                                             
   Description                                                                                      
     l       E           TYP  RCUT    TYP  RCUT                                                     
     0     -9.4430752     23  1.500                                                                 
     0      0.8675899     23  1.500                                                                 
     1     -3.6067955     23  1.700                                                                 
     1      6.1086146     23  1.700                                                                 
     2     -4.0817478      7  1.700                                                                 
  local pseudopotential read in
  partial core-charges read in
  partial kinetic energy density read in
  atomic valenz-charges read in
  non local Contribution for L=            0  read in
    real space projection operators read in
  non local Contribution for L=            0  read in
    real space projection operators read in
  non local Contribution for L=            1  read in
    real space projection operators read in
  non local Contribution for L=            1  read in
    real space projection operators read in
    PAW grid and wavefunctions read in
 
   number of l-projection  operators is LMAX  =            4
   number of lm-projection operators is LMMAX =            8
 
 POTCAR:    PAW_PBE C 08Apr2002                   
   VRHFIN =C: s2p2                                                                                  
   LEXCH  = PE                                                                                      
   EATOM  =   147.1560 eV,   10.8157 Ry                                                             
                                                                                                    
   TITEL  = PAW_PBE C 08Apr2002                                                                     
   LULTRA =        F    use ultrasoft PP ?                                                          
   IUNSCR =        1    unscreen: 0-lin 1-nonlin 2-no                                               
   RPACOR =    1.200    partial core radius                                                         
   POMASS =   12.011; ZVAL   =    4.000    mass and valenz                                          
   RCORE  =    1.500    outmost cutoff radius                                                       
   RWIGS  =    1.630; RWIGS  =    0.863    wigner-seitz radius (au A)                               
   ENMAX  =  400.000; ENMIN  =  300.000 eV                                                          
   ICORE  =        2    local potential                                                             
   LCOR   =        T    correct aug charges                                                         
   LPAW   =        T    paw PP                                                                      
   EAUG   =  644.873                                                                                
   DEXC   =    0.000                                                                                
   RMAX   =    1.529    core radius for proj-oper                                                   
   RAUG   =    1.300    factor for augmentation sphere                                              
   RDEP   =    1.501    radius for radial grids                                                     
   RDEPT  =    1.300    core radius for aug-charge                                                  
                                                                                                    
   Atomic configuration                                                                             
    4 entries                                                                                       
     n  l   j            E        occ.                                                              
     1  0  0.50      -273.3789   2.0000                                                             
     2  0  0.50       -13.7508   2.0000                                                             
     2  1  0.50        -5.2854   2.0000                                                             
     3  2  1.50        -5.4423   0.0000                                                             
   Description                                                                                      
     l       E           TYP  RCUT    TYP  RCUT                                                     
     0    -13.7508458     23  1.200                                                                 
     0     -8.2022199     23  1.200                                                                 
     1     -5.2854383     23  1.500                                                                 
     1     34.0145650     23  1.500                                                                 
     2     -5.4423304      7  1.500                                                                 
  local pseudopotential read in
  partial core-charges read in
  partial kinetic energy density read in
  atomic valenz-charges read in
  non local Contribution for L=            0  read in
    real space projection operators read in
  non local Contribution for L=            0  read in
    real space projection operators read in
  non local Contribution for L=            1  read in
    real space projection operators read in
  non local Contribution for L=            1  read in
    real space projection operators read in
    PAW grid and wavefunctions read in
 
   number of l-projection  operators is LMAX  =            4
   number of lm-projection operators is LMMAX =            8
 
 Optimization of the real space projectors (new method)

 maximal supplied QI-value         = 22.11
 optimisation between [QCUT,QGAM] = [ 13.49, 26.97] = [ 50.94,203.75] Ry 
 Optimized for a Real-space Cutoff    1.14 Angstroem

   l    n(q)    QCUT    max X(q) W(low)/X(q) W(high)/X(q)  e(spline) 
   0      9    13.487    53.033    0.17E-03    0.11E-03    0.20E-06
   0      9    13.487    34.740    0.17E-03    0.11E-03    0.20E-06
   1      9    13.487    30.949    0.61E-04    0.25E-04    0.11E-06
   1      9    13.487    19.518    0.55E-04    0.23E-04    0.10E-06
 Optimization of the real space projectors (new method)

 maximal supplied QI-value         = 25.13
 optimisation between [QCUT,QGAM] = [ 13.32, 26.89] = [ 49.69,202.52] Ry 
 Optimized for a Real-space Cutoff    1.07 Angstroem

   l    n(q)    QCUT    max X(q) W(low)/X(q) W(high)/X(q)  e(spline) 
   0      9    13.321   115.676    0.24E-03    0.18E-03    0.16E-06
   0      9    13.321    87.132    0.24E-03    0.18E-03    0.16E-06
   1      8    13.321     4.429    0.20E-03    0.27E-03    0.12E-06
   1      8    13.321     2.733    0.16E-03    0.21E-03    0.12E-06
  PAW_PBE B 06Sep2000                   :
 energy of atom  1       EATOM=  -71.1703
 kinetic energy error for atom=    0.0004 (will be added to EATOM!!)
  PAW_PBE C 08Apr2002                   :
 energy of atom  2       EATOM= -147.1560
 kinetic energy error for atom=    0.0032 (will be added to EATOM!!)
 
 
 POSCAR: B96 C24
  positions in direct lattice
  No initial velocities read in
 exchange correlation table for  LEXCH =        8
   RHO(1)=    0.500       N(1)  =     2000
   RHO(2)=  100.500       N(2)  =     4000
 


--------------------------------------------------------------------------------------------------------


 ion  position               nearest neighbor table
   1  0.158  0.404  0.404- 105 1.51  53 1.70  35 1.75  42 1.79  68 1.84  61 1.89
   2  0.158  0.404  0.904- 106 1.51  54 1.70  36 1.75  41 1.79  67 1.84  62 1.89
   3  0.158  0.904  0.404- 107 1.51  55 1.70  33 1.75  44 1.79  66 1.84  63 1.89
   4  0.158  0.904  0.904- 108 1.51  56 1.70  34 1.75  43 1.79  65 1.84  64 1.89
   5  0.658  0.404  0.404- 109 1.51  49 1.70  39 1.75  46 1.79  72 1.84  57 1.89
   6  0.658  0.404  0.904- 110 1.51  50 1.70  40 1.75  45 1.79  71 1.84  58 1.89
   7  0.658  0.904  0.404- 111 1.51  51 1.70  37 1.75  48 1.79  70 1.84  59 1.89
   8  0.658  0.904  0.904- 112 1.51  52 1.70  38 1.75  47 1.79  69 1.84  60 1.89
   9  0.402  0.402  0.157-  45 1.67 105 1.71  98 1.74  27 1.76  58 1.77  79 1.88
  10  0.402  0.402  0.657-  46 1.67 106 1.71  97 1.74  28 1.76  57 1.77  80 1.88
  11  0.402  0.902  0.157-  47 1.67 107 1.71 100 1.74  25 1.76  60 1.77  77 1.88
  12  0.402  0.902  0.657-  48 1.67 108 1.71  99 1.74  26 1.76  59 1.77  78 1.88
  13  0.902  0.402  0.157-  41 1.67 109 1.71 102 1.74  31 1.76  62 1.77  75 1.88
  14  0.902  0.402  0.657-  42 1.67 110 1.71 101 1.74  32 1.76  61 1.77  76 1.88
  15  0.902  0.902  0.157-  43 1.67 111 1.71 104 1.74  29 1.76  64 1.77  73 1.88
  16  0.902  0.902  0.657-  44 1.67 112 1.71 103 1.74  30 1.76  63 1.77  74 1.88
  17  0.402  0.157  0.402- 105 1.55  37 1.66  51 1.75  86 1.79  26 1.80  99 1.90
  18  0.402  0.157  0.902- 106 1.55  38 1.66  52 1.75  85 1.79  25 1.80 100 1.90
  19  0.402  0.657  0.402- 107 1.55  39 1.66  49 1.75  88 1.79  28 1.80  97 1.90
  20  0.402  0.657  0.902- 108 1.55  40 1.66  50 1.75  87 1.79  27 1.80  98 1.90
  21  0.902  0.157  0.402- 109 1.55  33 1.66  55 1.75  82 1.79  30 1.80 103 1.90
  22  0.902  0.157  0.902- 110 1.55  34 1.66  56 1.75  81 1.79  29 1.80 104 1.90
  23  0.902  0.657  0.402- 111 1.55  35 1.66  53 1.75  84 1.79  32 1.80 101 1.90
  24  0.902  0.657  0.902- 112 1.55  36 1.66  54 1.75  83 1.79  31 1.80 102 1.90
  25  0.341  0.097  0.097- 113 1.50  77 1.70  11 1.76 100 1.77  18 1.80  85 1.88
  26  0.341  0.097  0.597- 114 1.50  78 1.70  12 1.76  99 1.77  17 1.80  86 1.88
  27  0.341  0.597  0.097- 115 1.50  79 1.70   9 1.76  98 1.77  20 1.80  87 1.88
  28  0.341  0.597  0.597- 116 1.50  80 1.70  10 1.76  97 1.77  19 1.80  88 1.88
  29  0.841  0.097  0.097- 117 1.50  73 1.70  15 1.76 104 1.77  22 1.80  81 1.88
  30  0.841  0.097  0.597- 118 1.50  74 1.70  16 1.76 103 1.77  21 1.80  82 1.88
  31  0.841  0.597  0.097- 119 1.50  75 1.70  13 1.76 102 1.77  24 1.80  83 1.88
  32  0.841  0.597  0.597- 120 1.50  76 1.70  14 1.76 101 1.77  23 1.80  84 1.88
  33  0.099  0.097  0.344-  21 1.66 113 1.70   3 1.75  82 1.77  66 1.78  55 1.89
  34  0.099  0.097  0.844-  22 1.66 114 1.70   4 1.75  81 1.77  65 1.78  56 1.89
  35  0.099  0.597  0.344-  23 1.66 115 1.70   1 1.75  84 1.77  68 1.78  53 1.89
  36  0.099  0.597  0.844-  24 1.66 116 1.70   2 1.75  83 1.77  67 1.78  54 1.89
  37  0.599  0.097  0.344-  17 1.66 117 1.70   7 1.75  86 1.77  70 1.78  51 1.89
  38  0.599  0.097  0.844-  18 1.66 118 1.70   8 1.75  85 1.77  69 1.78  52 1.89
  39  0.599  0.597  0.344-  19 1.66 119 1.70   5 1.75  88 1.77  72 1.78  49 1.89
  40  0.599  0.597  0.844-  20 1.66 120 1.70   6 1.75  87 1.77  71 1.78  50 1.89
  41  0.099  0.344  0.097- 113 1.55  13 1.67  75 1.75   2 1.79  62 1.80  67 1.95
  42  0.099  0.344  0.597- 114 1.55  14 1.67  76 1.75   1 1.79  61 1.80  68 1.95
  43  0.099  0.844  0.097- 115 1.55  15 1.67  73 1.75   4 1.79  64 1.80  65 1.95
  44  0.099  0.844  0.597- 116 1.55  16 1.67  74 1.75   3 1.79  63 1.80  66 1.95
  45  0.599  0.344  0.097- 117 1.55   9 1.67  79 1.75   6 1.79  58 1.80  71 1.95
  46  0.599  0.344  0.597- 118 1.55  10 1.67  80 1.75   5 1.79  57 1.80  72 1.95
  47  0.599  0.844  0.097- 119 1.55  11 1.67  77 1.75   8 1.79  60 1.80  69 1.95
  48  0.599  0.844  0.597- 120 1.55  12 1.67  78 1.75   7 1.79  59 1.80  70 1.95
  49  0.494  0.497  0.337-   5 1.70  79 1.74  19 1.75  97 1.77  57 1.86  39 1.89
  50  0.494  0.497  0.837-   6 1.70  80 1.74  20 1.75  98 1.77  58 1.86  40 1.89
  51  0.494  0.997  0.337-   7 1.70  77 1.74  17 1.75  99 1.77  59 1.86  37 1.89
  52  0.494  0.997  0.837-   8 1.70  78 1.74  18 1.75 100 1.77  60 1.86  38 1.89
  53  0.994  0.497  0.337-   1 1.70  75 1.74  23 1.75 101 1.77  61 1.86  35 1.89
  54  0.994  0.497  0.837-   2 1.70  76 1.74  24 1.75 102 1.77  62 1.86  36 1.89
  55  0.994  0.997  0.337-   3 1.70  73 1.74  21 1.75 103 1.77  63 1.86  33 1.89
  56  0.994  0.997  0.837-   4 1.70  74 1.74  22 1.75 104 1.77  64 1.86  34 1.89
  57  0.494  0.337  0.497-  97 1.64  10 1.77  86 1.79  46 1.80  49 1.86   5 1.89
  58  0.494  0.337  0.997-  98 1.64   9 1.77  85 1.79  45 1.80  50 1.86   6 1.89
  59  0.494  0.837  0.497-  99 1.64  12 1.77  88 1.79  48 1.80  51 1.86   7 1.89
  60  0.494  0.837  0.997- 100 1.64  11 1.77  87 1.79  47 1.80  52 1.86   8 1.89
  61  0.994  0.337  0.497- 101 1.64  14 1.77  82 1.79  42 1.80  53 1.86   1 1.89
  62  0.994  0.337  0.997- 102 1.64  13 1.77  81 1.79  41 1.80  54 1.86   2 1.89
  63  0.994  0.837  0.497- 103 1.64  16 1.77  84 1.79  44 1.80  55 1.86   3 1.89
  64  0.994  0.837  0.997- 104 1.64  15 1.77  83 1.79  43 1.80  56 1.86   4 1.89
  65  0.171  0.003  0.003- 100 1.65  81 1.69  34 1.78   4 1.84  73 1.84  43 1.95
  66  0.171  0.003  0.503-  99 1.65  82 1.69  33 1.78   3 1.84  74 1.84  44 1.95
  67  0.171  0.503  0.003-  98 1.65  83 1.69  36 1.78   2 1.84  75 1.84  41 1.95
  68  0.171  0.503  0.503-  97 1.65  84 1.69  35 1.78   1 1.84  76 1.84  42 1.95
  69  0.671  0.003  0.003- 104 1.65  85 1.69  38 1.78   8 1.84  77 1.84  47 1.95
  70  0.671  0.003  0.503- 103 1.65  86 1.69  37 1.78   7 1.84  78 1.84  48 1.95
  71  0.671  0.503  0.003- 102 1.65  87 1.69  40 1.78   6 1.84  79 1.84  45 1.95
  72  0.671  0.503  0.503- 101 1.65  88 1.69  39 1.78   5 1.84  80 1.84  46 1.95
  73  0.003  0.003  0.164-  29 1.70  55 1.74  43 1.75  65 1.84  81 1.87  15 1.88
  74  0.003  0.003  0.664-  30 1.70  56 1.74  44 1.75  66 1.84  82 1.87  16 1.88
  75  0.003  0.503  0.164-  31 1.70  53 1.74  41 1.75  67 1.84  83 1.87  13 1.88
  76  0.003  0.503  0.664-  32 1.70  54 1.74  42 1.75  68 1.84  84 1.87  14 1.88
  77  0.503  0.003  0.164-  25 1.70  51 1.74  47 1.75  69 1.84  85 1.87  11 1.88
  78  0.503  0.003  0.664-  26 1.70  52 1.74  48 1.75  70 1.84  86 1.87  12 1.88
  79  0.503  0.503  0.164-  27 1.70  49 1.74  45 1.75  71 1.84  87 1.87   9 1.88
  80  0.503  0.503  0.664-  28 1.70  50 1.74  46 1.75  72 1.84  88 1.87  10 1.88
  81  0.003  0.164  0.003-  65 1.69  34 1.77  22 1.79  62 1.79  73 1.87  29 1.88
  82  0.003  0.164  0.503-  66 1.69  33 1.77  21 1.79  61 1.79  74 1.87  30 1.88
  83  0.003  0.664  0.003-  67 1.69  36 1.77  24 1.79  64 1.79  75 1.87  31 1.88
  84  0.003  0.664  0.503-  68 1.69  35 1.77  23 1.79  63 1.79  76 1.87  32 1.88
  85  0.503  0.164  0.003-  69 1.69  38 1.77  18 1.79  58 1.79  77 1.87  25 1.88
  86  0.503  0.164  0.503-  70 1.69  37 1.77  17 1.79  57 1.79  78 1.87  26 1.88
  87  0.503  0.664  0.003-  71 1.69  40 1.77  20 1.79  60 1.79  79 1.87  27 1.88
  88  0.503  0.664  0.503-  72 1.69  39 1.77  19 1.79  59 1.79  80 1.87  28 1.88
  89  0.248  0.249  0.249- 113 1.47 105 1.48
  90  0.248  0.249  0.749- 114 1.47 106 1.48
  91  0.248  0.749  0.249- 115 1.47 107 1.48
  92  0.248  0.749  0.749- 116 1.47 108 1.48
  93  0.748  0.249  0.249- 117 1.47 109 1.48
  94  0.748  0.249  0.749- 118 1.47 110 1.48
  95  0.748  0.749  0.249- 119 1.47 111 1.48
  96  0.748  0.749  0.749- 120 1.47 112 1.48
  97  0.338  0.498  0.498-  57 1.64  68 1.65  10 1.74  28 1.77  49 1.77  19 1.90
  98  0.338  0.498  0.998-  58 1.64  67 1.65   9 1.74  27 1.77  50 1.77  20 1.90
  99  0.338  0.998  0.498-  59 1.64  66 1.65  12 1.74  26 1.77  51 1.77  17 1.90
 100  0.338  0.998  0.998-  60 1.64  65 1.65  11 1.74  25 1.77  52 1.77  18 1.90
 101  0.838  0.498  0.498-  61 1.64  72 1.65  14 1.74  32 1.77  53 1.77  23 1.90
 102  0.838  0.498  0.998-  62 1.64  71 1.65  13 1.74  31 1.77  54 1.77  24 1.90
 103  0.838  0.998  0.498-  63 1.64  70 1.65  16 1.74  30 1.77  55 1.77  21 1.90
 104  0.838  0.998  0.998-  64 1.64  69 1.65  15 1.74  29 1.77  56 1.77  22 1.90
 105  0.306  0.309  0.309-  89 1.48   1 1.51  17 1.55   9 1.71
 106  0.306  0.309  0.809-  90 1.48   2 1.51  18 1.55  10 1.71
 107  0.306  0.809  0.309-  91 1.48   3 1.51  19 1.55  11 1.71
 108  0.306  0.809  0.809-  92 1.48   4 1.51  20 1.55  12 1.71
 109  0.806  0.309  0.309-  93 1.48   5 1.51  21 1.55  13 1.71
 110  0.806  0.309  0.809-  94 1.48   6 1.51  22 1.55  14 1.71
 111  0.806  0.809  0.309-  95 1.48   7 1.51  23 1.55  15 1.71
 112  0.806  0.809  0.809-  96 1.48   8 1.51  24 1.55  16 1.71
 113  0.191  0.189  0.189-  89 1.47  25 1.50  41 1.55  33 1.70
 114  0.191  0.189  0.689-  90 1.47  26 1.50  42 1.55  34 1.70
 115  0.191  0.689  0.189-  91 1.47  27 1.50  43 1.55  35 1.70
 116  0.191  0.689  0.689-  92 1.47  28 1.50  44 1.55  36 1.70
 117  0.691  0.189  0.189-  93 1.47  29 1.50  45 1.55  37 1.70
 118  0.691  0.189  0.689-  94 1.47  30 1.50  46 1.55  38 1.70
 119  0.691  0.689  0.189-  95 1.47  31 1.50  47 1.55  39 1.70
 120  0.691  0.689  0.689-  96 1.47  32 1.50  48 1.55  40 1.70
 
  Warning from LATTYP: Got some problem with cell dimensions!
  Tried to take original basis but could not verify dimensions!
  LATTYP: Found a triclinic cell.
 ALAT       =    10.7763612504
 B/A-ratio  =     0.9552160853
 C/A-ratio  =     0.9658531475
 COS(alpha) =     0.0170337189
 COS(beta)  =     0.4019193857
 COS(gamma) =     0.5364412243
  
  Lattice vectors:
  
 A1 = (   4.1326780000,   8.9823410000,   4.2858470000)
 A2 = (  -5.1144400000,   8.9327990000,   0.0947040000)
 A3 = (  -0.0399190000,   0.0711050000,  10.4080630000)


Analysis of symmetry for initial positions (statically):
=====================================================================
 Subroutine PRICEL returns following result:
 
  Warning from LATTYP: Got some problem with cell dimensions!
  Tried to take original basis but could not verify dimensions!
  LATTYP: Found a triclinic cell.
 ALAT       =     5.3881806252
 B/A-ratio  =     0.9552160853
 C/A-ratio  =     0.9658531475
 COS(alpha) =     0.0170337189
 COS(beta)  =     0.4019193857
 COS(gamma) =     0.5364412243
  
  Lattice vectors:
  
 A1 = (   2.0663390000,   4.4911705000,   2.1429235000)
 A2 = (  -2.5572200000,   4.4663995000,   0.0473520000)
 A3 = (  -0.0199595000,   0.0355525000,   5.2040315000)
 
   8 primitive cells build up your supercell.
 

 Routine SETGRP: Setting up the symmetry group for a 
 triclinic supercell.


 Subroutine GETGRP returns: Found  1 space group operations
 (whereof  1 operations were pure point group operations)
 out of a pool of  2 trial point group operations.


The static configuration has the point symmetry C_1 .


Analysis of symmetry for dynamics (positions and initial velocities):
=====================================================================
 Subroutine PRICEL returns following result:
 
  Warning from LATTYP: Got some problem with cell dimensions!
  Tried to take original basis but could not verify dimensions!
  LATTYP: Found a triclinic cell.
 ALAT       =     5.3881806252
 B/A-ratio  =     0.9552160853
 C/A-ratio  =     0.9658531475
 COS(alpha) =     0.0170337189
 COS(beta)  =     0.4019193857
 COS(gamma) =     0.5364412243
  
  Lattice vectors:
  
 A1 = (   2.0663390000,   4.4911705000,   2.1429235000)
 A2 = (  -2.5572200000,   4.4663995000,   0.0473520000)
 A3 = (  -0.0199595000,   0.0355525000,   5.2040315000)
 
   8 primitive cells build up your supercell.
 

 Routine SETGRP: Setting up the symmetry group for a 
 triclinic supercell.


 Subroutine GETGRP returns: Found  1 space group operations
 (whereof  1 operations were pure point group operations)
 out of a pool of  2 trial point group operations.


The dynamic configuration has the point symmetry C_1 .


 Subroutine INISYM returns: Found  1 space group operations
 (whereof  1 operations are pure point group operations),
 and found     8 'primitive' translations


----------------------------------------------------------------------------------------

                                     Primitive cell                                     

  volume of cell :     107.7848

  direct lattice vectors                    reciprocal lattice vectors
     2.066339000  4.491170500  2.142923500     0.215629605  0.123458082 -0.000016407
    -2.557220000  4.466399500  0.047352000    -0.216134373  0.100163121 -0.001513247
    -0.019959500  0.035552500  5.204031500    -0.086825638 -0.051749139  0.192179239

  length of vectors
     5.388180625  5.146876804  5.204191216     0.248471377  0.238220503  0.217139413

  position of ions in fractional coordinates (direct lattice)
     0.123362000  0.684154000  0.807516000
     0.607940000  0.196736000  0.314440000
     0.117704000  0.196736000  0.804676000
     0.876062000  0.317268000  0.193330000
     0.391072000  0.802600000  0.687422000
     0.884822000  0.802600000  0.193672000
     0.983692000  0.011106000  0.673596000
     0.662490000  0.011106000  0.994798000
     0.347490000  0.658410000  0.005900000
     0.012460000  0.993050000  0.328724000
     0.335674000  0.993050000  0.005510000
     0.994008000  0.504010000  0.498018000
     0.672528000  0.323328000  0.995856000
     0.231050000  0.387824000  0.618874000
     0.759648000  0.618022000  0.377670000

  ion indices of the primitive-cell ions
   primitive index   ion index
                 1           1
                 2           9
                 3          17
                 4          28
                 5          35
                 6          42
                 7          53
                 8          61
                 9          68
                10          75
                11          82
                12          89
                13          97
                14         105
                15         113

----------------------------------------------------------------------------------------

 
 -----------------------------------------------------------------------------
|                                                                             |
|           W    W    AA    RRRRR   N    N  II  N    N   GGGG   !!!           |
|           W    W   A  A   R    R  NN   N  II  NN   N  G    G  !!!           |
|           W    W  A    A  R    R  N N  N  II  N N  N  G       !!!           |
|           W WW W  AAAAAA  RRRRR   N  N N  II  N  N N  G  GGG   !            |
|           WW  WW  A    A  R   R   N   NN  II  N   NN  G    G                |
|           W    W  A    A  R    R  N    N  II  N    N   GGGG   !!!           |
|                                                                             |
|     The requested file  could not be found or opened for reading            |
|     k-point information. Automatic k-point generation is used as a          |
|     fallback, which may lead to unwanted results.                           |
|                                                                             |
 -----------------------------------------------------------------------------

 

Automatic generation of k-mesh.
 Grid dimensions derived from KSPACING:
 generate k-points for:    2    2    2

 Generating k-lattice:

  Cartesian coordinates                     Fractional coordinates (reciprocal lattice)
     0.054033593 -0.025040780  0.000378312     0.500000000  0.000000000 -0.000000000
    -0.000126192  0.055905301 -0.000382414     0.000000000  0.500000000  0.000000000
    -0.021706409 -0.012937285  0.048044810    -0.000000000 -0.000000000  0.500000000

  Length of vectors
     0.059555126  0.055906751  0.054284853

  Shift w.r.t. Gamma in fractional coordinates (k-lattice)
     0.000000000  0.000000000  0.000000000

 TETIRR: Found     24 inequivalent tetrahedra from       48
 
 Subroutine IBZKPT returns following result:
 ===========================================
 
 Found      8 irreducible k-points:
 
 Following reciprocal coordinates:
            Coordinates               Weight
  0.000000  0.000000  0.000000      1.000000
  0.500000  0.000000  0.000000      1.000000
  0.000000  0.500000  0.000000      1.000000
  0.500000  0.500000  0.000000      1.000000
  0.000000  0.000000  0.500000      1.000000
  0.500000  0.000000  0.500000      1.000000
  0.000000  0.500000  0.500000      1.000000
  0.500000  0.500000  0.500000      1.000000
 
 Following cartesian coordinates:
            Coordinates               Weight
  0.000000  0.000000  0.000000      1.000000
  0.054034 -0.025041  0.000378      1.000000
 -0.000126  0.055905 -0.000382      1.000000
  0.053907  0.030865 -0.000004      1.000000
 -0.021706 -0.012937  0.048045      1.000000
  0.032327 -0.037978  0.048423      1.000000
 -0.021833  0.042968  0.047662      1.000000
  0.032201  0.017927  0.048041      1.000000
 


--------------------------------------------------------------------------------------------------------




 Dimension of arrays:
   k-points           NKPTS =      8   k-points in BZ     NKDIM =      8   number of bands    NBANDS=    253
   number of dos      NEDOS =    301   number of ions     NIONS =    120
   non local maximal  LDIM  =      4   non local SUM 2l+1 LMDIM =      8
   total plane-waves  NPLWV = 777600
   max r-space proj   IRMAX =   5651   max aug-charges    IRDMAX=  14261
   dimension x,y,z NGX =    90 NGY =   96 NGZ =   90
   dimension x,y,z NGXF=   180 NGYF=  192 NGZF=  180
   support grid    NGXF=   180 NGYF=  192 NGZF=  180
   ions per type =              96  24
   NGX,Y,Z   is equivalent  to a cutoff of  14.74, 14.81, 14.38 a.u.
   NGXF,Y,Z  is equivalent  to a cutoff of  29.47, 29.62, 28.75 a.u.

 SYSTEM =  unknown system                          
 POSCAR =  B96 C24                                 

 Startparameter for this run:
   NWRITE =      2    write-flag & timer
   PREC   = accura    normal or accurate (medium, high low for compatibility)
   ISTART =      0    job   : 0-new  1-cont  2-samecut
   ICHARG =      2    charge: 1-file 2-atom 10-const
   ISPIN  =      1    spin polarized calculation?
   LNONCOLLINEAR =      F non collinear calculations
   LSORBIT =      F    spin-orbit coupling
   INIWAV =      1    electr: 0-lowe 1-rand  2-diag
   LASPH  =      F    aspherical Exc in radial PAW
   METAGGA=      F    non-selfconsistent MetaGGA calc.

 Electronic Relaxation 1
   ENCUT  =  700.0 eV  51.45 Ry    7.17 a.u.  21.90 23.25 22.45*2*pi/ulx,y,z
   ENINI  =  700.0     initial cutoff
   ENAUG  =  644.9 eV  augmentation charge cutoff
   NELM   =     60;   NELMIN=  2; NELMDL= -5     # of ELM steps 
   EDIFF  = 0.1E-05   stopping-criterion for ELM
   LREAL  =      T    real-space projection
   NLSPLINE    = F    spline interpolate recip. space projectors
   LCOMPAT=      F    compatible to vasp.4.4
   GGA_COMPAT  = T    GGA compatible to vasp.4.4-vasp.4.6
   LMAXPAW     = -100 max onsite density
   LMAXMIX     =    2 max onsite mixed and CHGCAR
   VOSKOWN=      0    Vosko Wilk Nusair interpolation
   ROPT   =   -0.00025  -0.00025
 Ionic relaxation
   EDIFFG = 0.1E-04   stopping-criterion for IOM
   NSW    =    300    number of steps for IOM
   NBLOCK =      1;   KBLOCK =    300    inner block; outer block 
   IBRION =      2    ionic relax: 0-MD 1-quasi-New 2-CG
   NFREE  =      1    steps in history (QN), initial steepest desc. (CG)
   ISIF   =      4    stress and relaxation
   IWAVPR =     11    prediction:  0-non 1-charg 2-wave 3-comb
   ISYM   =      2    0-nonsym 1-usesym 2-fastsym
   LCORR  =      T    Harris-Foulkes like correction to forces

   POTIM  = 0.5000    time-step for ionic-motion
   TEIN   =    0.0    initial temperature
   TEBEG  =    0.0;   TEEND  =   0.0 temperature during run
   SMASS  =  -3.00    Nose mass-parameter (am)
   estimated Nose-frequenzy (Omega)   =  0.10E-29 period in steps = 0.13E+47 mass=  -0.236E-26a.u.
   SCALEE = 1.0000    scale energy and forces
   NPACO  =    256;   APACO  = 16.0  distance and # of slots for P.C.
   PSTRESS=    0.0 pullay stress

  Mass of Ions in am
   POMASS =  10.81 12.01
  Ionic Valenz
   ZVAL   =   3.00  4.00
  Atomic Wigner-Seitz radii
   RWIGS  =  -1.00 -1.00
  virtual crystal weights 
   VCA    =   1.00  1.00
   NELECT =     384.0000    total number of electrons
   NUPDOWN=      -1.0000    fix difference up-down

 DOS related values:
   EMIN   =  10.00;   EMAX   =-10.00  energy-range for DOS
   EFERMI =   0.00
   ISMEAR =    -5;   SIGMA  =   0.05  broadening in eV -4-tet -1-fermi 0-gaus

 Electronic relaxation 2 (details)
   IALGO  =     68    algorithm
   LDIAG  =      T    sub-space diagonalisation (order eigenvalues)
   LSUBROT=      F    optimize rotation matrix (better conditioning)
   TURBO    =      0    0=normal 1=particle mesh
   IRESTART =      0    0=no restart 2=restart with 2 vectors
   NREBOOT  =      0    no. of reboots
   NMIN     =      0    reboot dimension
   EREF     =   0.00    reference energy to select bands
   IMIX   =      4    mixing-type and parameters
     AMIX     =   0.40;   BMIX     =  1.00
     AMIX_MAG =   1.60;   BMIX_MAG =  1.00
     AMIN     =   0.10
     WC   =   100.;   INIMIX=   1;  MIXPRE=   1;  MAXMIX= -45

 Intra band minimization:
   WEIMIN = 0.0010     energy-eigenvalue tresh-hold
   EBREAK =  0.99E-09  absolut break condition
   DEPER  =   0.30     relativ break condition  

   TIME   =   0.40     timestep for ELM

  volume/ion in A,a.u.               =       7.19        48.49
  Fermi-wavevector in a.u.,A,eV,Ry     =   1.250171  2.362480 21.264914  1.562927
  Thomas-Fermi vector in A             =   2.384177
 
 Write flags
   LWAVE        =      F    write WAVECAR
   LDOWNSAMPLE  =      F    k-point downsampling of WAVECAR
   LCHARG       =      T    write CHGCAR
   LVTOT        =      F    write LOCPOT, total local potential
   LVHAR        =      F    write LOCPOT, Hartree potential only
   LELF         =      F    write electronic localiz. function (ELF)
   LORBIT       =      0    0 simple, 1 ext, 2 COOP (PROOUT), +10 PAW based schemes


 Dipole corrections
   LMONO  =      F    monopole corrections only (constant potential shift)
   LDIPOL =      F    correct potential (dipole corrections)
   IDIPOL =      0    1-x, 2-y, 3-z, 4-all directions 
   EPSILON=  1.0000000 bulk dielectric constant

 Exchange correlation treatment:
   GGA     =    --    GGA type
   LEXCH   =     8    internal setting for exchange type
   VOSKOWN=      0    Vosko Wilk Nusair interpolation
   LHFCALC =     F    Hartree Fock is set to
   LHFONE  =     F    Hartree Fock one center treatment
   AEXX    =    0.0000 exact exchange contribution

 Linear response parameters
   LEPSILON=     F    determine dielectric tensor
   LRPA    =     F    only Hartree local field effects (RPA)
   LNABLA  =     F    use nabla operator in PAW spheres
   LVEL    =     F    velocity operator in full k-point grid
   LINTERFAST=   F  fast interpolation
   KINTER  =     0    interpolate to denser k-point grid
   CSHIFT  =0.1000    complex shift for real part using Kramers Kronig
   OMEGAMAX=  -1.0    maximum frequency
   DEG_THRESHOLD= 0.2000000E-02 threshold for treating states as degnerate
   RTIME   =   -0.100 relaxation time in fs
  (WPLASMAI=    0.000 imaginary part of plasma frequency in eV, 0.658/RTIME)
   DFIELD  = 0.0000000 0.0000000 0.0000000 field for delta impulse in time
 
 Orbital magnetization related:
   ORBITALMAG=     F  switch on orbital magnetization
   LCHIMAG   =     F  perturbation theory with respect to B field
   DQ        =  0.001000  dq finite difference perturbation B field
   LLRAUG    =     F  two centre corrections for induced B field



--------------------------------------------------------------------------------------------------------


 conjugate gradient relaxation of ions
 charge density and potential will be updated during run
 non-spin polarized calculation
 RMM-DIIS sequential band-by-band and
  variant of blocked Davidson during initial phase
 perform sub-space diagonalisation
    before iterative eigenvector-optimisation
 modified Broyden-mixing scheme, WC =      100.0
 initial mixing is a Kerker type mixing with AMIX =  0.4000 and BMIX =      1.0000
 Hartree-type preconditioning will be used
 using additional bands            61
 real space projection scheme for non local part
 use partial core corrections
 calculate Harris-corrections to forces 
   (improved forces if not selfconsistent)
 use gradient corrections 
 use of overlap-Matrix (Vanderbilt PP)
 Fermi weights with tetrahedron method with Bloechl corrections


--------------------------------------------------------------------------------------------------------


  energy-cutoff  :      700.00
  volume of cell :      862.28
      direct lattice vectors                 reciprocal lattice vectors
     9.247118000  0.049542000  4.191143000     0.108067186 -0.050081561  0.000756623
     4.132678000  8.982341000  4.285847000    -0.000252384  0.111810602 -0.000764827
    -0.039919000  0.071105000 10.408063000    -0.043412819 -0.025874570  0.096089620

  length of vectors
    10.152700398 10.776361250 10.408382432     0.119110251  0.111813502  0.108569707


 
 k-points in units of 2pi/SCALE and weight: read from INCAR                         
   0.00000000  0.00000000  0.00000000       0.125
   0.05403359 -0.02504078  0.00037831       0.125
  -0.00012619  0.05590530 -0.00038241       0.125
   0.05390740  0.03086452 -0.00000410       0.125
  -0.02170641 -0.01293728  0.04804481       0.125
   0.03232718 -0.03797807  0.04842312       0.125
  -0.02183260  0.04296802  0.04766240       0.125
   0.03220099  0.01792724  0.04804071       0.125
 
 k-points in reciprocal lattice and weights: read from INCAR                         
   0.00000000  0.00000000  0.00000000       0.125
   0.50000000  0.00000000  0.00000000       0.125
   0.00000000  0.50000000  0.00000000       0.125
   0.50000000  0.50000000  0.00000000       0.125
   0.00000000  0.00000000  0.50000000       0.125
   0.50000000  0.00000000  0.50000000       0.125
   0.00000000  0.50000000  0.50000000       0.125
   0.50000000  0.50000000  0.50000000       0.125
 
 position of ions in fractional coordinates (direct lattice) 
   0.15792300  0.40375800  0.40375800
   0.15792300  0.40375800  0.90375800
   0.15792300  0.90375800  0.40375800
   0.15792300  0.90375800  0.90375800
   0.65792300  0.40375800  0.40375800
   0.65792300  0.40375800  0.90375800
   0.65792300  0.90375800  0.40375800
   0.65792300  0.90375800  0.90375800
   0.40163200  0.40233800  0.15722000
   0.40163200  0.40233800  0.65722000
   0.40163200  0.90233800  0.15722000
   0.40163200  0.90233800  0.65722000
   0.90163200  0.40233800  0.15722000
   0.90163200  0.40233800  0.65722000
   0.90163200  0.90233800  0.15722000
   0.90163200  0.90233800  0.65722000
   0.40163200  0.15722000  0.40233800
   0.40163200  0.15722000  0.90233800
   0.40163200  0.65722000  0.40233800
   0.40163200  0.65722000  0.90233800
   0.90163200  0.15722000  0.40233800
   0.90163200  0.15722000  0.90233800
   0.90163200  0.65722000  0.40233800
   0.90163200  0.65722000  0.90233800
   0.34136600  0.09666500  0.09666500
   0.34136600  0.09666500  0.59666500
   0.34136600  0.59666500  0.09666500
   0.34136600  0.59666500  0.59666500
   0.84136600  0.09666500  0.09666500
   0.84136600  0.09666500  0.59666500
   0.84136600  0.59666500  0.09666500
   0.84136600  0.59666500  0.59666500
   0.09870000  0.09683600  0.34371100
   0.09870000  0.09683600  0.84371100
   0.09870000  0.59683600  0.34371100
   0.09870000  0.59683600  0.84371100
   0.59870000  0.09683600  0.34371100
   0.59870000  0.09683600  0.84371100
   0.59870000  0.59683600  0.34371100
   0.59870000  0.59683600  0.84371100
   0.09870000  0.34371100  0.09683600
   0.09870000  0.34371100  0.59683600
   0.09870000  0.84371100  0.09683600
   0.09870000  0.84371100  0.59683600
   0.59870000  0.34371100  0.09683600
   0.59870000  0.34371100  0.59683600
   0.59870000  0.84371100  0.09683600
   0.59870000  0.84371100  0.59683600
   0.49444700  0.49739900  0.33679800
   0.49444700  0.49739900  0.83679800
   0.49444700  0.99739900  0.33679800
   0.49444700  0.99739900  0.83679800
   0.99444700  0.49739900  0.33679800
   0.99444700  0.49739900  0.83679800
   0.99444700  0.99739900  0.33679800
   0.99444700  0.99739900  0.83679800
   0.49444700  0.33679800  0.49739900
   0.49444700  0.33679800  0.99739900
   0.49444700  0.83679800  0.49739900
   0.49444700  0.83679800  0.99739900
   0.99444700  0.33679800  0.49739900
   0.99444700  0.33679800  0.99739900
   0.99444700  0.83679800  0.49739900
   0.99444700  0.83679800  0.99739900
   0.17079500  0.00295000  0.00295000
   0.17079500  0.00295000  0.50295000
   0.17079500  0.50295000  0.00295000
   0.17079500  0.50295000  0.50295000
   0.67079500  0.00295000  0.00295000
   0.67079500  0.00295000  0.50295000
   0.67079500  0.50295000  0.00295000
   0.67079500  0.50295000  0.50295000
   0.00347500  0.00275500  0.16436200
   0.00347500  0.00275500  0.66436200
   0.00347500  0.50275500  0.16436200
   0.00347500  0.50275500  0.66436200
   0.50347500  0.00275500  0.16436200
   0.50347500  0.00275500  0.66436200
   0.50347500  0.50275500  0.16436200
   0.50347500  0.50275500  0.66436200
   0.00347500  0.16436200  0.00275500
   0.00347500  0.16436200  0.50275500
   0.00347500  0.66436200  0.00275500
   0.00347500  0.66436200  0.50275500
   0.50347500  0.16436200  0.00275500
   0.50347500  0.16436200  0.50275500
   0.50347500  0.66436200  0.00275500
   0.50347500  0.66436200  0.50275500
   0.24799500  0.24900900  0.24900900
   0.24799500  0.24900900  0.74900900
   0.24799500  0.74900900  0.24900900
   0.24799500  0.74900900  0.74900900
   0.74799500  0.24900900  0.24900900
   0.74799500  0.24900900  0.74900900
   0.74799500  0.74900900  0.24900900
   0.74799500  0.74900900  0.74900900
   0.33833600  0.49792800  0.49792800
   0.33833600  0.49792800  0.99792800
   0.33833600  0.99792800  0.49792800
   0.33833600  0.99792800  0.99792800
   0.83833600  0.49792800  0.49792800
   0.83833600  0.49792800  0.99792800
   0.83833600  0.99792800  0.49792800
   0.83833600  0.99792800  0.99792800
   0.30608800  0.30943700  0.30943700
   0.30608800  0.30943700  0.80943700
   0.30608800  0.80943700  0.30943700
   0.30608800  0.80943700  0.80943700
   0.80608800  0.30943700  0.30943700
   0.80608800  0.30943700  0.80943700
   0.80608800  0.80943700  0.30943700
   0.80608800  0.80943700  0.80943700
   0.19098900  0.18883500  0.18883500
   0.19098900  0.18883500  0.68883500
   0.19098900  0.68883500  0.18883500
   0.19098900  0.68883500  0.68883500
   0.69098900  0.18883500  0.18883500
   0.69098900  0.18883500  0.68883500
   0.69098900  0.68883500  0.18883500
   0.69098900  0.68883500  0.68883500
 
 position of ions in cartesian coordinates  (Angst):
   3.11281680  3.66322507  6.59466159
   3.09285730  3.69877757 11.79869309
   5.17915580  8.15439557  8.73758509
   5.15919630  8.18994807 13.94161659
   7.73637580  3.68799607  8.69023309
   7.71641630  3.72354857 13.89426459
   9.80271480  8.17916657 10.83315659
   9.78275530  8.21471907 16.03718809
   5.37039583  3.64501389  5.04401192
   5.35043633  3.68056639 10.24804342
   7.43673483  8.13618439  7.18693542
   7.41677533  8.17173689 12.39096692
   9.99395483  3.66978489  7.13958342
   9.97399533  3.70533739 12.34361492
  12.06029383  8.16095539  9.28250692
  12.04033433  8.19650789 14.48653842
   4.34761720  1.46070955  6.54467726
   4.32765770  1.49626205 11.74870876
   6.41395620  5.95188005  8.68760076
   6.39399670  5.98743255 13.89163226
   8.97117620  1.48548055  8.64024876
   8.95121670  1.52103305 13.84428026
  11.03751520  5.97665105 10.78317226
  11.01755570  6.01220355 15.98720376
   3.55227823  0.89206331  2.85110053
   3.53231873  0.92761581  8.05513203
   5.61861723  5.38323381  4.99402403
   5.59865773  5.41878631 10.19805553
   8.17583723  0.91683431  4.94667203
   8.15587773  0.95238681 10.15070353
  10.24217623  5.40800481  7.08959553
  10.22221673  5.44355731 12.29362703
   1.29916195  0.89914334  4.40605584
   1.27920245  0.93469584  9.61008734
   3.36550095  5.39031384  6.54897934
   3.34554145  5.42586634 11.75301084
   5.92272095  0.92391434  6.50162734
   5.90276145  0.95946684 11.70565884
   7.98905995  5.41508484  8.64455084
   7.96910045  5.45063734 13.84858234
   2.32927184  3.09910473  2.89463376
   2.30931234  3.13465723  8.09866526
   4.39561084  7.59027523  5.03755726
   4.37565134  7.62582773 10.24158876
   6.95283084  3.12387573  4.99020526
   6.93287134  3.15942823 10.19423676
   9.01916984  7.61504623  7.13312876
   8.99921034  7.65059873 12.33716026
   6.61435502  4.51625135  7.70948890
   6.59439552  4.55180385 12.91352040
   8.68069402  9.00742185  9.85241240
   8.66073452  9.04297435 15.05644390
  11.23791402  4.54102235  9.80506040
  11.21795452  4.57657485 15.00909190
  13.30425302  9.03219285 11.94798390
  13.28429352  9.06774535 17.15201540
   5.94423177  3.08509793  8.69272291
   5.92427227  3.12065043 13.89675441
   8.01057077  7.57626843 10.83564641
   7.99061127  7.61182093 16.03967791
  10.56779077  3.10986893 10.78829441
  10.54783127  3.14542143 15.99232591
  12.63412977  7.60103943 12.93121791
  12.61417027  7.63659193 18.13524941
   1.59143516  0.03516919  0.75917330
   1.57147566  0.07072169  5.96320480
   3.65777416  4.52633969  2.90209680
   3.63781466  4.56189219  8.10612830
   6.21499416  0.05994019  2.85474480
   6.19503466  0.09549269  8.05877630
   8.28133316  4.55111069  4.99766830
   8.26137366  4.58666319 10.20169980
   0.03695810  0.03660547  1.73706178
   0.01699860  0.07215797  6.94109328
   2.10329710  4.52777597  3.87998528
   2.08333760  4.56332847  9.08401678
   4.66051710  0.06137647  3.83263328
   4.64055760  0.09692897  9.03666478
   6.72685610  4.55254697  5.97555678
   6.70689660  4.58809947 11.17958828
   0.71127898  1.47672358  0.74766882
   0.69131948  1.51227608  5.95170032
   2.77761798  5.96789408  2.89059232
   2.75765848  6.00344658  8.09462382
   5.33483798  1.50149458  2.84324032
   5.31487848  1.53704708  8.04727182
   7.40117698  5.99266508  4.98616382
   7.38121748  6.02821758 10.19019532
   3.31237285  2.26667570  4.69829834
   3.29241335  2.30222820  9.90232984
   5.37871185  6.75784620  6.84122184
   5.35875235  6.79339870 12.04525334
   7.93593185  2.29144670  6.79386984
   7.91597235  2.32699920 11.99790134
  10.00227085  6.78261720  8.93679334
   9.98231135  6.81816970 14.14082484
   5.16653222  4.52472610  8.73452378
   5.14657272  4.56027860 13.93855528
   7.23287122  9.01589660 10.87744728
   7.21291172  9.05144910 16.08147878
   9.79009122  4.54949710 10.83009528
   9.77013172  4.58504960 16.03412678
  11.85643022  9.04066760 12.97301878
  11.83647072  9.07622010 18.17705028
   4.09688292  2.81663538  5.82969801
   4.07692342  2.85218788 11.03372951
   6.16322192  7.30780588  7.97262151
   6.14326242  7.34335838 13.17665301
   8.72044192  2.84140638  7.92526951
   8.70048242  2.87695888 13.12930101
  10.78678092  7.33257688 10.06819301
  10.76682142  7.36812938 15.27222451
   2.53895397  1.71906945  3.57518671
   2.51899447  1.75462195  8.77921821
   4.60529297  6.21023995  5.71811021
   4.58533347  6.24579245 10.92214171
   7.16251297  1.74384045  5.67075821
   7.14255347  1.77939295 10.87478971
   9.22885197  6.23501095  7.81368171
   9.20889247  6.27056345 13.01771321
 


--------------------------------------------------------------------------------------------------------


 k-point   1 :   0.0000 0.0000 0.0000  plane waves:   36239
 k-point   2 :   0.5000 0.0000 0.0000  plane waves:   36266
 k-point   3 :   0.0000 0.5000 0.0000  plane waves:   36266
 k-point   4 :   0.5000 0.5000 0.0000  plane waves:   36304
 k-point   5 :   0.0000 0.0000 0.5000  plane waves:   36280
 k-point   6 :   0.5000 0.0000 0.5000  plane waves:   36282
 k-point   7 :   0.0000 0.5000 0.5000  plane waves:   36240
 k-point   8 :   0.5000 0.5000 0.5000  plane waves:   36242

 maximum and minimum number of plane-waves per node :     36304    36239

 maximum number of plane-waves:     36304
 maximum index in each direction: 
   IXMAX=   21   IYMAX=   23   IZMAX=   22
   IXMIN=  -22   IYMIN=  -23   IZMIN=  -22


 serial   3D FFT for wavefunctions
 parallel 3D FFT for charge:
    minimum data exchange during FFTs selected (reduces bandwidth)


 total amount of memory used by VASP MPI-rank0  1889440. kBytes
=======================================================================

   base      :      30000. kBytes
   nonlr-proj:      55956. kBytes
   fftplans  :     213988. kBytes
   grid      :     382371. kBytes
   one-center:        368. kBytes
   wavefun   :    1206757. kBytes
 
     INWAV:  cpu time    0.0002: real time    0.0002
 Broyden mixing: mesh for mixing (old mesh)
   NGX = 43   NGY = 47   NGZ = 45
  (NGX  =180   NGY  =192   NGZ  =180)
  gives a total of  90945 points

 initial charge density was supplied:
 charge density of overlapping atoms calculated
 number of electron     384.0000000 magnetization 
 keeping initial charge density in first step


--------------------------------------------------------------------------------------------------------


 Maximum index for non-local projection operator          5459
 Maximum index for augmentation-charges         13665 (set IRDMAX)


--------------------------------------------------------------------------------------------------------


 First call to EWALD:  gamma=   0.186
 Maximum number of real-space cells 3x 3x 3
 Maximum number of reciprocal cells 3x 3x 3

    FEWALD:  cpu time    0.0870: real time    0.0870


--------------------------------------- Iteration      1(   1)  ---------------------------------------


    POTLOK:  cpu time    0.1446: real time    0.1446
    SETDIJ:  cpu time    0.1316: real time    0.1315
     EDDAV:  cpu time    6.9476: real time    6.9514
 BZINTS: Fermi energy:   17.608955;  384.000000 electrons
         Band energy: 0.163359E+04;  BLOECHL correction:   -0.085608
       DOS:  cpu time    0.0318: real time    0.0318
    --------------------------------------------
      LOOP:  cpu time    7.2555: real time    7.2592

 eigenvalue-minimisations  :  4048
 total energy-change (2. order) : 0.1554214E+04  (-0.2198982E+05)
 number of electron     384.0000000 magnetization 
 augmentation part      384.0000000 magnetization 

 Free energy of the ion-electron system (eV)
  ---------------------------------------------------
  alpha Z        PSCENC =      1199.86758843
  Ewald energy   TEWEN  =    -11641.98404138
  -Hartree energ DENC   =     -1088.96890594
  -exchange      EXHF   =         0.00000000
  -V(xc)+E(xc)   XCENC  =      1019.28308403
  PAW double counting   =      6780.51620165    -6712.07122612
  entropy T*S    EENTRO =         0.00000000
  eigenvalues    EBANDS =      1633.59474666
  atomic energy  EATOM  =     10363.97701633
  Solvation  Ediel_sol  =         0.00000000
  ---------------------------------------------------
  free energy    TOTEN  =      1554.21446366 eV

  energy without entropy =     1554.21446366  energy(sigma->0) =     1554.21446366


--------------------------------------------------------------------------------------------------------




--------------------------------------- Iteration      1(   2)  ---------------------------------------


     EDDAV:  cpu time    7.9414: real time    7.9508
 BZINTS: Fermi energy:    7.788807;  384.000000 electrons
         Band energy:-0.681804E+03;  BLOECHL correction:    0.000000
       DOS:  cpu time    0.0236: real time    0.0236
    --------------------------------------------
      LOOP:  cpu time    7.9650: real time    7.9743

 eigenvalue-minimisations  :  4904
 total energy-change (2. order) :-0.2315399E+04  (-0.2174596E+04)
 number of electron     384.0000000 magnetization 
 augmentation part      384.0000000 magnetization 

 Free energy of the ion-electron system (eV)
  ---------------------------------------------------
  alpha Z        PSCENC =      1199.86758843
  Ewald energy   TEWEN  =    -11641.98404138
  -Hartree energ DENC   =     -1088.96890594
  -exchange      EXHF   =         0.00000000
  -V(xc)+E(xc)   XCENC  =      1019.28308403
  PAW double counting   =      6780.51620165    -6712.07122612
  entropy T*S    EENTRO =         0.00000000
  eigenvalues    EBANDS =      -681.80405622
  atomic energy  EATOM  =     10363.97701633
  Solvation  Ediel_sol  =         0.00000000
  ---------------------------------------------------
  free energy    TOTEN  =      -761.18433921 eV

  energy without entropy =     -761.18433921  energy(sigma->0) =     -761.18433921


--------------------------------------------------------------------------------------------------------




--------------------------------------- Iteration      1(   3)  ---------------------------------------


     EDDAV:  cpu time    7.9796: real time    7.9908
 BZINTS: Fermi energy:    7.073343;  384.000000 electrons
         Band energy:-0.834497E+03;  BLOECHL correction:    0.000000
       DOS:  cpu time    0.0253: real time    0.0253
    --------------------------------------------
      LOOP:  cpu time    8.0049: real time    8.0160

 eigenvalue-minimisations  :  4920
 total energy-change (2. order) :-0.1526926E+03  (-0.1501133E+03)
 number of electron     384.0000000 magnetization 
 augmentation part      384.0000000 magnetization 

 Free energy of the ion-electron system (eV)
  ---------------------------------------------------
  alpha Z        PSCENC =      1199.86758843
  Ewald energy   TEWEN  =    -11641.98404138
  -Hartree energ DENC   =     -1088.96890594
  -exchange      EXHF   =         0.00000000
  -V(xc)+E(xc)   XCENC  =      1019.28308403
  PAW double counting   =      6780.51620165    -6712.07122612
  entropy T*S    EENTRO =         0.00000000
  eigenvalues    EBANDS =      -834.49663326
  atomic energy  EATOM  =     10363.97701633
  Solvation  Ediel_sol  =         0.00000000
  ---------------------------------------------------
  free energy    TOTEN  =      -913.87691626 eV

  energy without entropy =     -913.87691626  energy(sigma->0) =     -913.87691626


--------------------------------------------------------------------------------------------------------




--------------------------------------- Iteration      1(   4)  ---------------------------------------


     EDDAV:  cpu time    7.8893: real time    7.9118
 BZINTS: Fermi energy:    7.036947;  384.000000 electrons
         Band energy:-0.838246E+03;  BLOECHL correction:   -0.000000
       DOS:  cpu time    0.0260: real time    0.0260
    --------------------------------------------
      LOOP:  cpu time    7.9153: real time    7.9378

 eigenvalue-minimisations  :  4840
 total energy-change (2. order) :-0.3748944E+01  (-0.3724754E+01)
 number of electron     384.0000000 magnetization 
 augmentation part      384.0000000 magnetization 

 Free energy of the ion-electron system (eV)
  ---------------------------------------------------
  alpha Z        PSCENC =      1199.86758843
  Ewald energy   TEWEN  =    -11641.98404138
  -Hartree energ DENC   =     -1088.96890594
  -exchange      EXHF   =         0.00000000
  -V(xc)+E(xc)   XCENC  =      1019.28308403
  PAW double counting   =      6780.51620165    -6712.07122612
  entropy T*S    EENTRO =         0.00000000
  eigenvalues    EBANDS =      -838.24557739
  atomic energy  EATOM  =     10363.97701633
  Solvation  Ediel_sol  =         0.00000000
  ---------------------------------------------------
  free energy    TOTEN  =      -917.62586039 eV

  energy without entropy =     -917.62586039  energy(sigma->0) =     -917.62586039


--------------------------------------------------------------------------------------------------------




--------------------------------------- Iteration      1(   5)  ---------------------------------------


     EDDAV:  cpu time    7.8479: real time    7.8873
 BZINTS: Fermi energy:    7.035710;  384.000000 electrons
         Band energy:-0.838355E+03;  BLOECHL correction:    0.000000
       DOS:  cpu time    0.0258: real time    0.0258
    CHARGE:  cpu time    1.6797: real time    1.6790
    MIXING:  cpu time    0.0747: real time    0.0746
    --------------------------------------------
      LOOP:  cpu time    9.6281: real time    9.6667

 eigenvalue-minimisations  :  4824
 total energy-change (2. order) :-0.1093269E+00  (-0.1090760E+00)
 number of electron     383.9999999 magnetization 
 augmentation part        2.0409599 magnetization 

 Broyden mixing:
  rms(total) = 0.42081E+01    rms(broyden)= 0.42080E+01
  rms(prec ) = 0.57731E+01
  weight for this iteration     100.00

 Free energy of the ion-electron system (eV)
  ---------------------------------------------------
  alpha Z        PSCENC =      1199.86758843
  Ewald energy   TEWEN  =    -11641.98404138
  -Hartree energ DENC   =     -1088.96890594
  -exchange      EXHF   =         0.00000000
  -V(xc)+E(xc)   XCENC  =      1019.28308403
  PAW double counting   =      6780.51620165    -6712.07122612
  entropy T*S    EENTRO =         0.00000000
  eigenvalues    EBANDS =      -838.35490431
  atomic energy  EATOM  =     10363.97701633
  Solvation  Ediel_sol  =         0.00000000
  ---------------------------------------------------
  free energy    TOTEN  =      -917.73518731 eV

  energy without entropy =     -917.73518731  energy(sigma->0) =     -917.73518731


--------------------------------------------------------------------------------------------------------




--------------------------------------- Iteration      1(   6)  ---------------------------------------


    POTLOK:  cpu time    0.1371: real time    0.1371
    SETDIJ:  cpu time    0.1252: real time    0.1251
    EDDIAG:  cpu time    1.4856: real time    1.4852
  RMM-DIIS:  cpu time    6.2251: real time    6.1794
    ORTHCH:  cpu time    0.0393: real time    0.0393
 BZINTS: Fermi energy:    7.031570;  384.000000 electrons
         Band energy:-0.554842E+03;  BLOECHL correction:   -0.000000
       DOS:  cpu time    0.0262: real time    0.0262
    CHARGE:  cpu time    1.6517: real time    1.6512
    MIXING:  cpu time    0.0696: real time    0.0696
    --------------------------------------------
      LOOP:  cpu time    9.7599: real time    9.7131

 eigenvalue-minimisations  :  4048
 total energy-change (2. order) : 0.5150763E+02  (-0.7792485E+01)
 number of electron     383.9999999 magnetization 
 augmentation part        1.7086248 magnetization 

 Broyden mixing:
  rms(total) = 0.22146E+01    rms(broyden)= 0.22146E+01
  rms(prec ) = 0.28136E+01
  weight for this iteration     100.00

 eigenvalues of (default mixing * dielectric matrix)
  average eigenvalue GAMMA=   1.8459
  1.8459

 Free energy of the ion-electron system (eV)
  ---------------------------------------------------
  alpha Z        PSCENC =      1199.86758843
  Ewald energy   TEWEN  =    -11641.98404138
  -Hartree energ DENC   =     -1331.03654530
  -exchange      EXHF   =         0.00000000
  -V(xc)+E(xc)   XCENC  =      1035.51397837
  PAW double counting   =     15315.05304963   -15252.77692842
  entropy T*S    EENTRO =         0.00000000
  eigenvalues    EBANDS =      -554.84167467
  atomic energy  EATOM  =     10363.97701633
  Solvation  Ediel_sol  =         0.00000000
  ---------------------------------------------------
  free energy    TOTEN  =      -866.22755700 eV

  energy without entropy =     -866.22755700  energy(sigma->0) =     -866.22755700


--------------------------------------------------------------------------------------------------------




--------------------------------------- Iteration      1(   7)  ---------------------------------------


    POTLOK:  cpu time    0.1377: real time    0.1378
    SETDIJ:  cpu time    0.1326: real time    0.1325
    EDDIAG:  cpu time    1.4672: real time    1.4669
  RMM-DIIS:  cpu time    6.2354: real time    6.1577
    ORTHCH:  cpu time    0.0386: real time    0.0386
 BZINTS: Fermi energy:    7.120056;  384.000000 electrons
         Band energy:-0.349270E+03;  BLOECHL correction:    0.000000
       DOS:  cpu time    0.0261: real time    0.0261
    CHARGE:  cpu time    1.6300: real time    1.6294
    MIXING:  cpu time    0.0635: real time    0.0635
    --------------------------------------------
      LOOP:  cpu time    9.7311: real time    9.6524

 eigenvalue-minimisations  :  4048
 total energy-change (2. order) : 0.7951596E+01  (-0.6099834E+01)
 number of electron     383.9999999 magnetization 
 augmentation part        1.3431478 magnetization 

 Broyden mixing:
  rms(total) = 0.86019E+00    rms(broyden)= 0.86017E+00
  rms(prec ) = 0.10335E+01
  weight for this iteration     100.00

 eigenvalues of (default mixing * dielectric matrix)
  average eigenvalue GAMMA=   2.1703
  2.1703  2.1703

 Free energy of the ion-electron system (eV)
  ---------------------------------------------------
  alpha Z        PSCENC =      1199.86758843
  Ewald energy   TEWEN  =    -11641.98404138
  -Hartree energ DENC   =     -1539.06881524
  -exchange      EXHF   =         0.00000000
  -V(xc)+E(xc)   XCENC  =      1050.64590206
  PAW double counting   =     28723.80310145   -28666.24642441
  entropy T*S    EENTRO =         0.00000000
  eigenvalues    EBANDS =      -349.27028782
  atomic energy  EATOM  =     10363.97701633
  Solvation  Ediel_sol  =         0.00000000
  ---------------------------------------------------
  free energy    TOTEN  =      -858.27596057 eV

  energy without entropy =     -858.27596057  energy(sigma->0) =     -858.27596057


--------------------------------------------------------------------------------------------------------




--------------------------------------- Iteration      1(   8)  ---------------------------------------


    POTLOK:  cpu time    0.1311: real time    0.1311
    SETDIJ:  cpu time    0.1251: real time    0.1251
    EDDIAG:  cpu time    1.4706: real time    1.4705
  RMM-DIIS:  cpu time    6.2200: real time    6.1439
    ORTHCH:  cpu time    0.0387: real time    0.0387
 BZINTS: Fermi energy:    7.329449;  384.000000 electrons
         Band energy:-0.369158E+03;  BLOECHL correction:   -0.000000
       DOS:  cpu time    0.0259: real time    0.0259
    CHARGE:  cpu time    1.6509: real time    1.6491
    MIXING:  cpu time    0.0684: real time    0.0684
    --------------------------------------------
      LOOP:  cpu time    9.7307: real time    9.6527

 eigenvalue-minimisations  :  4048
 total energy-change (2. order) : 0.3113924E+00  (-0.1029158E+01)
 number of electron     383.9999999 magnetization 
 augmentation part        1.3647273 magnetization 

 Broyden mixing:
  rms(total) = 0.33901E+00    rms(broyden)= 0.33901E+00
  rms(prec ) = 0.54032E+00
  weight for this iteration     100.00

 eigenvalues of (default mixing * dielectric matrix)
  average eigenvalue GAMMA=   1.7506
  2.5579  1.3469  1.3469

 Free energy of the ion-electron system (eV)
  ---------------------------------------------------
  alpha Z        PSCENC =      1199.86758843
  Ewald energy   TEWEN  =    -11641.98404138
  -Hartree energ DENC   =     -1519.12885265
  -exchange      EXHF   =         0.00000000
  -V(xc)+E(xc)   XCENC  =      1050.54923590
  PAW double counting   =     35409.32798260   -35351.41527544
  entropy T*S    EENTRO =         0.00000000
  eigenvalues    EBANDS =      -369.15822193
  atomic energy  EATOM  =     10363.97701633
  Solvation  Ediel_sol  =         0.00000000
  ---------------------------------------------------
  free energy    TOTEN  =      -857.96456815 eV

  energy without entropy =     -857.96456815  energy(sigma->0) =     -857.96456815


--------------------------------------------------------------------------------------------------------




--------------------------------------- Iteration      1(   9)  ---------------------------------------


    POTLOK:  cpu time    0.1320: real time    0.1320
    SETDIJ:  cpu time    0.1249: real time    0.1249
    EDDIAG:  cpu time    1.4818: real time    1.4814
  RMM-DIIS:  cpu time    6.2225: real time    6.1695
    ORTHCH:  cpu time    0.0428: real time    0.0392
 BZINTS: Fermi energy:    7.275579;  384.000000 electrons
         Band energy:-0.322616E+03;  BLOECHL correction:   -0.000000
       DOS:  cpu time    0.0261: real time    0.0260
    CHARGE:  cpu time    1.6294: real time    1.6287
    MIXING:  cpu time    0.0661: real time    0.0661
    --------------------------------------------
      LOOP:  cpu time    9.7255: real time    9.6677

 eigenvalue-minimisations  :  4048
 total energy-change (2. order) : 0.6107194E+00  (-0.3094891E+00)
 number of electron     383.9999999 magnetization 
 augmentation part        1.3208220 magnetization 

 Broyden mixing:
  rms(total) = 0.96029E-01    rms(broyden)= 0.96026E-01
  rms(prec ) = 0.13678E+00
  weight for this iteration     100.00

 eigenvalues of (default mixing * dielectric matrix)
  average eigenvalue GAMMA=   1.6094
  2.4635  0.9474  1.5133  1.5133

 Free energy of the ion-electron system (eV)
  ---------------------------------------------------
  alpha Z        PSCENC =      1199.86758843
  Ewald energy   TEWEN  =    -11641.98404138
  -Hartree energ DENC   =     -1567.49749538
  -exchange      EXHF   =         0.00000000
  -V(xc)+E(xc)   XCENC  =      1053.76593628
  PAW double counting   =     36703.55892210   -36646.42533259
  entropy T*S    EENTRO =         0.00000000
  eigenvalues    EBANDS =      -322.61644250
  atomic energy  EATOM  =     10363.97701633
  Solvation  Ediel_sol  =         0.00000000
  ---------------------------------------------------
  free energy    TOTEN  =      -857.35384872 eV

  energy without entropy =     -857.35384872  energy(sigma->0) =     -857.35384872


--------------------------------------------------------------------------------------------------------




--------------------------------------- Iteration      1(  10)  ---------------------------------------


    POTLOK:  cpu time    0.1310: real time    0.1309
    SETDIJ:  cpu time    0.1304: real time    0.1304
    EDDIAG:  cpu time    1.4834: real time    1.4830
  RMM-DIIS:  cpu time    6.4518: real time    6.3925
    ORTHCH:  cpu time    0.0385: real time    0.0385
 BZINTS: Fermi energy:    7.281303;  384.000000 electrons
         Band energy:-0.327501E+03;  BLOECHL correction:    0.000000
       DOS:  cpu time    0.0260: real time    0.0260
    CHARGE:  cpu time    1.6499: real time    1.6494
    MIXING:  cpu time    0.0663: real time    0.0662
    --------------------------------------------
      LOOP:  cpu time    9.9773: real time    9.9170

 eigenvalue-minimisations  :  4182
 total energy-change (2. order) :-0.1410597E-01  (-0.4273659E-01)
 number of electron     383.9999999 magnetization 
 augmentation part        1.2994540 magnetization 

 Broyden mixing:
  rms(total) = 0.78195E-01    rms(broyden)= 0.78194E-01
  rms(prec ) = 0.10951E+00
  weight for this iteration     100.00

 eigenvalues of (default mixing * dielectric matrix)
  average eigenvalue GAMMA=   1.6066
  2.5153  2.2340  1.0389  1.0389  1.2058

 Free energy of the ion-electron system (eV)
  ---------------------------------------------------
  alpha Z        PSCENC =      1199.86758843
  Ewald energy   TEWEN  =    -11641.98404138
  -Hartree energ DENC   =     -1562.52988602
  -exchange      EXHF   =         0.00000000
  -V(xc)+E(xc)   XCENC  =      1053.47510797
  PAW double counting   =     36581.99744903   -36524.67016550
  entropy T*S    EENTRO =         0.00000000
  eigenvalues    EBANDS =      -327.50102356
  atomic energy  EATOM  =     10363.97701633
  Solvation  Ediel_sol  =         0.00000000
  ---------------------------------------------------
  free energy    TOTEN  =      -857.36795469 eV

  energy without entropy =     -857.36795469  energy(sigma->0) =     -857.36795469


--------------------------------------------------------------------------------------------------------




--------------------------------------- Iteration      1(  11)  ---------------------------------------


    POTLOK:  cpu time    0.1377: real time    0.1377
    SETDIJ:  cpu time    0.1325: real time    0.1324
    EDDIAG:  cpu time    1.4666: real time    1.4666
  RMM-DIIS:  cpu time    6.2189: real time    6.1515
    ORTHCH:  cpu time    0.0386: real time    0.0386
 BZINTS: Fermi energy:    7.295949;  384.000000 electrons
         Band energy:-0.332004E+03;  BLOECHL correction:   -0.000000
       DOS:  cpu time    0.0264: real time    0.0264
    CHARGE:  cpu time    1.6405: real time    1.6401
    MIXING:  cpu time    0.0667: real time    0.0667
    --------------------------------------------
      LOOP:  cpu time    9.7281: real time    9.6600

 eigenvalue-minimisations  :  4048
 total energy-change (2. order) : 0.1845471E-01  (-0.7187835E-02)
 number of electron     383.9999999 magnetization 
 augmentation part        1.2992408 magnetization 

 Broyden mixing:
  rms(total) = 0.14706E-01    rms(broyden)= 0.14706E-01
  rms(prec ) = 0.18100E-01
  weight for this iteration     100.00

 eigenvalues of (default mixing * dielectric matrix)
  average eigenvalue GAMMA=   1.6371
  2.6915  2.6915  1.3003  1.3003  0.9196  0.9196

 Free energy of the ion-electron system (eV)
  ---------------------------------------------------
  alpha Z        PSCENC =      1199.86758843
  Ewald energy   TEWEN  =    -11641.98404138
  -Hartree energ DENC   =     -1557.96359769
  -exchange      EXHF   =         0.00000000
  -V(xc)+E(xc)   XCENC  =      1053.25039999
  PAW double counting   =     36710.35954790   -36652.85214557
  entropy T*S    EENTRO =         0.00000000
  eigenvalues    EBANDS =      -332.00426799
  atomic energy  EATOM  =     10363.97701633
  Solvation  Ediel_sol  =         0.00000000
  ---------------------------------------------------
  free energy    TOTEN  =      -857.34949998 eV

  energy without entropy =     -857.34949998  energy(sigma->0) =     -857.34949998


--------------------------------------------------------------------------------------------------------




--------------------------------------- Iteration      1(  12)  ---------------------------------------


    POTLOK:  cpu time    0.1313: real time    0.1314
    SETDIJ:  cpu time    0.1327: real time    0.1326
    EDDIAG:  cpu time    1.4692: real time    1.4687
  RMM-DIIS:  cpu time    6.2963: real time    6.2188
    ORTHCH:  cpu time    0.0388: real time    0.0387
 BZINTS: Fermi energy:    7.297772;  384.000000 electrons
         Band energy:-0.333583E+03;  BLOECHL correction:   -0.000000
       DOS:  cpu time    0.0263: real time    0.0263
    CHARGE:  cpu time    1.6330: real time    1.6322
    MIXING:  cpu time    0.0813: real time    0.0813
    --------------------------------------------
      LOOP:  cpu time    9.8089: real time    9.7301

 eigenvalue-minimisations  :  4082
 total energy-change (2. order) :-0.1919360E-02  (-0.1623274E-02)
 number of electron     383.9999999 magnetization 
 augmentation part        1.3006288 magnetization 

 Broyden mixing:
  rms(total) = 0.13574E-01    rms(broyden)= 0.13574E-01
  rms(prec ) = 0.19126E-01
  weight for this iteration     100.00

 eigenvalues of (default mixing * dielectric matrix)
  average eigenvalue GAMMA=   1.6057
  2.7134  2.7134  1.4723  1.4723  0.8998  0.9844  0.9844

 Free energy of the ion-electron system (eV)
  ---------------------------------------------------
  alpha Z        PSCENC =      1199.86758843
  Ewald energy   TEWEN  =    -11641.98404138
  -Hartree energ DENC   =     -1556.36111451
  -exchange      EXHF   =         0.00000000
  -V(xc)+E(xc)   XCENC  =      1053.15693212
  PAW double counting   =     36640.02336858   -36582.44793454
  entropy T*S    EENTRO =         0.00000000
  eigenvalues    EBANDS =      -333.58323436
  atomic energy  EATOM  =     10363.97701633
  Solvation  Ediel_sol  =         0.00000000
  ---------------------------------------------------
  free energy    TOTEN  =      -857.35141934 eV

  energy without entropy =     -857.35141934  energy(sigma->0) =     -857.35141934


--------------------------------------------------------------------------------------------------------




--------------------------------------- Iteration      1(  13)  ---------------------------------------


    POTLOK:  cpu time    0.1305: real time    0.1306
    SETDIJ:  cpu time    0.1259: real time    0.1259
    EDDIAG:  cpu time    1.4856: real time    1.4854
  RMM-DIIS:  cpu time    6.4920: real time    6.4135
    ORTHCH:  cpu time    0.0386: real time    0.0386
 BZINTS: Fermi energy:    7.296627;  384.000000 electrons
         Band energy:-0.332674E+03;  BLOECHL correction:   -0.000000
       DOS:  cpu time    0.0263: real time    0.0263
    CHARGE:  cpu time    1.6540: real time    1.6664
    MIXING:  cpu time    0.0775: real time    0.0775
    --------------------------------------------
      LOOP:  cpu time   10.0305: real time    9.9640

 eigenvalue-minimisations  :  4200
 total energy-change (2. order) : 0.4432512E-03  (-0.3533122E-03)
 number of electron     383.9999999 magnetization 
 augmentation part        1.2994108 magnetization 

 Broyden mixing:
  rms(total) = 0.51351E-02    rms(broyden)= 0.51351E-02
  rms(prec ) = 0.66485E-02
  weight for this iteration     100.00

 eigenvalues of (default mixing * dielectric matrix)
  average eigenvalue GAMMA=   1.6687
  2.7966  2.7966  2.2018  1.4632  1.0674  1.0674  1.0525  0.9045

 Free energy of the ion-electron system (eV)
  ---------------------------------------------------
  alpha Z        PSCENC =      1199.86758843
  Ewald energy   TEWEN  =    -11641.98404138
  -Hartree energ DENC   =     -1557.31667168
  -exchange      EXHF   =         0.00000000
  -V(xc)+E(xc)   XCENC  =      1053.22129161
  PAW double counting   =     36649.29916665   -36591.74105723
  entropy T*S    EENTRO =         0.00000000
  eigenvalues    EBANDS =      -332.67426882
  atomic energy  EATOM  =     10363.97701633
  Solvation  Ediel_sol  =         0.00000000
  ---------------------------------------------------
  free energy    TOTEN  =      -857.35097609 eV

  energy without entropy =     -857.35097609  energy(sigma->0) =     -857.35097609


--------------------------------------------------------------------------------------------------------




--------------------------------------- Iteration      1(  14)  ---------------------------------------


    POTLOK:  cpu time    0.1407: real time    0.1408
    SETDIJ:  cpu time    0.1253: real time    0.1252
    EDDIAG:  cpu time    1.4848: real time    1.4847
  RMM-DIIS:  cpu time    6.2864: real time    6.2042
    ORTHCH:  cpu time    0.0390: real time    0.0390
 BZINTS: Fermi energy:    7.295894;  384.000000 electrons
         Band energy:-0.332381E+03;  BLOECHL correction:    0.000000
       DOS:  cpu time    0.0278: real time    0.0277
    CHARGE:  cpu time    1.6467: real time    1.6566
    MIXING:  cpu time    0.0696: real time    0.0696
    --------------------------------------------
      LOOP:  cpu time    9.8203: real time    9.7478

 eigenvalue-minimisations  :  4076
 total energy-change (2. order) :-0.3990294E-04  (-0.1285496E-03)
 number of electron     383.9999999 magnetization 
 augmentation part        1.2981730 magnetization 

 Broyden mixing:
  rms(total) = 0.13296E-02    rms(broyden)= 0.13295E-02
  rms(prec ) = 0.18488E-02
  weight for this iteration     100.00

 eigenvalues of (default mixing * dielectric matrix)
  average eigenvalue GAMMA=   1.6175
  2.7073  2.7073  2.3654  1.6764  1.0346  1.0346  1.2213  0.9705  0.8405

 Free energy of the ion-electron system (eV)
  ---------------------------------------------------
  alpha Z        PSCENC =      1199.86758843
  Ewald energy   TEWEN  =    -11641.98404138
  -Hartree energ DENC   =     -1557.62024059
  -exchange      EXHF   =         0.00000000
  -V(xc)+E(xc)   XCENC  =      1053.24153767
  PAW double counting   =     36649.76254561   -36592.21398050
  entropy T*S    EENTRO =         0.00000000
  eigenvalues    EBANDS =      -332.38144156
  atomic energy  EATOM  =     10363.97701633
  Solvation  Ediel_sol  =         0.00000000
  ---------------------------------------------------
  free energy    TOTEN  =      -857.35101599 eV

  energy without entropy =     -857.35101599  energy(sigma->0) =     -857.35101599


--------------------------------------------------------------------------------------------------------




--------------------------------------- Iteration      1(  15)  ---------------------------------------


    POTLOK:  cpu time    0.1305: real time    0.1305
    SETDIJ:  cpu time    0.1333: real time    0.1332
    EDDIAG:  cpu time    1.4669: real time    1.4665
  RMM-DIIS:  cpu time    6.5280: real time    6.4615
    ORTHCH:  cpu time    0.0389: real time    0.0389
 BZINTS: Fermi energy:    7.296204;  384.000000 electrons
         Band energy:-0.332407E+03;  BLOECHL correction:   -0.000000
       DOS:  cpu time    0.0323: real time    0.0323
    CHARGE:  cpu time    1.6432: real time    1.6436
    MIXING:  cpu time    0.0723: real time    0.0723
    --------------------------------------------
      LOOP:  cpu time   10.0453: real time    9.9788

 eigenvalue-minimisations  :  4229
 total energy-change (2. order) :-0.1146027E-04  (-0.1762027E-04)
 number of electron     383.9999999 magnetization 
 augmentation part        1.2979752 magnetization 

 Broyden mixing:
  rms(total) = 0.10582E-02    rms(broyden)= 0.10582E-02
  rms(prec ) = 0.14964E-02
  weight for this iteration     100.00

 eigenvalues of (default mixing * dielectric matrix)
  average eigenvalue GAMMA=   1.6136
  2.7857  2.7857  2.4885  1.5450  1.5450  1.0823  1.0823  0.9982  0.9982  0.8251

 Free energy of the ion-electron system (eV)
  ---------------------------------------------------
  alpha Z        PSCENC =      1199.86758843
  Ewald energy   TEWEN  =    -11641.98404138
  -Hartree energ DENC   =     -1557.59148048
  -exchange      EXHF   =         0.00000000
  -V(xc)+E(xc)   XCENC  =      1053.23923282
  PAW double counting   =     36651.60616988   -36594.05811169
  entropy T*S    EENTRO =         0.00000000
  eigenvalues    EBANDS =      -332.40740136
  atomic energy  EATOM  =     10363.97701633
  Solvation  Ediel_sol  =         0.00000000
  ---------------------------------------------------
  free energy    TOTEN  =      -857.35102745 eV

  energy without entropy =     -857.35102745  energy(sigma->0) =     -857.35102745


--------------------------------------------------------------------------------------------------------




--------------------------------------- Iteration      1(  16)  ---------------------------------------


    POTLOK:  cpu time    0.1308: real time    0.1308
    SETDIJ:  cpu time    0.1333: real time    0.1333
    EDDIAG:  cpu time    1.4688: real time    1.4683
  RMM-DIIS:  cpu time    6.5788: real time    6.4890
    ORTHCH:  cpu time    0.0390: real time    0.0390
 BZINTS: Fermi energy:    7.296133;  384.000000 electrons
         Band energy:-0.332436E+03;  BLOECHL correction:   -0.000000
       DOS:  cpu time    0.0298: real time    0.0297
    CHARGE:  cpu time    1.6473: real time    1.6466
    MIXING:  cpu time    0.0746: real time    0.0745
    --------------------------------------------
      LOOP:  cpu time   10.1023: real time   10.0112

 eigenvalue-minimisations  :  4248
 total energy-change (2. order) :-0.1389492E-05  (-0.4428275E-05)
 number of electron     383.9999999 magnetization 
 augmentation part        1.2979001 magnetization 

 Broyden mixing:
  rms(total) = 0.57882E-03    rms(broyden)= 0.57881E-03
  rms(prec ) = 0.82932E-03
  weight for this iteration     100.00

 eigenvalues of (default mixing * dielectric matrix)
  average eigenvalue GAMMA=   1.5894
  3.0924  2.5533  2.0832  1.7745  1.7745  1.0527  1.0527  1.2200  1.0344  1.0344
  0.8116

 Free energy of the ion-electron system (eV)
  ---------------------------------------------------
  alpha Z        PSCENC =      1199.86758843
  Ewald energy   TEWEN  =    -11641.98404138
  -Hartree energ DENC   =     -1557.56178141
  -exchange      EXHF   =         0.00000000
  -V(xc)+E(xc)   XCENC  =      1053.23739262
  PAW double counting   =     36652.10124753   -36594.55262542
  entropy T*S    EENTRO =         0.00000000
  eigenvalues    EBANDS =      -332.43582554
  atomic energy  EATOM  =     10363.97701633
  Solvation  Ediel_sol  =         0.00000000
  ---------------------------------------------------
  free energy    TOTEN  =      -857.35102884 eV

  energy without entropy =     -857.35102884  energy(sigma->0) =     -857.35102884


--------------------------------------------------------------------------------------------------------




[...]
   -.216E+02 -.402E+01 -.179E+02   0.229E+02 0.392E+01 0.185E+02   -.132E+01 0.943E-01 -.607E+00   0.117E-03 0.602E-04 0.655E-04
   -.216E+02 -.402E+01 -.179E+02   0.229E+02 0.392E+01 0.185E+02   -.132E+01 0.943E-01 -.607E+00   0.116E-03 0.603E-04 0.656E-04
   -.216E+02 -.402E+01 -.179E+02   0.229E+02 0.392E+01 0.185E+02   -.132E+01 0.943E-01 -.607E+00   0.116E-03 0.601E-04 0.654E-04
   -.216E+02 -.402E+01 -.179E+02   0.229E+02 0.392E+01 0.185E+02   -.132E+01 0.943E-01 -.607E+00   0.116E-03 0.605E-04 0.657E-04
   -.216E+02 -.402E+01 -.179E+02   0.229E+02 0.392E+01 0.185E+02   -.132E+01 0.943E-01 -.607E+00   0.117E-03 0.602E-04 0.657E-04
   -.216E+02 -.402E+01 -.179E+02   0.229E+02 0.392E+01 0.185E+02   -.132E+01 0.943E-01 -.607E+00   0.116E-03 0.603E-04 0.654E-04
   -.881E+01 -.387E+01 -.465E+02   0.871E+01 0.410E+01 0.510E+02   0.966E-01 -.233E+00 -.446E+01   0.430E-04 0.244E-04 0.692E-04
   -.881E+01 -.387E+01 -.465E+02   0.871E+01 0.410E+01 0.510E+02   0.966E-01 -.233E+00 -.446E+01   0.426E-04 0.246E-04 0.693E-04
   -.881E+01 -.387E+01 -.465E+02   0.871E+01 0.410E+01 0.510E+02   0.966E-01 -.233E+00 -.446E+01   0.427E-04 0.246E-04 0.692E-04
   -.881E+01 -.387E+01 -.465E+02   0.871E+01 0.410E+01 0.510E+02   0.966E-01 -.233E+00 -.446E+01   0.426E-04 0.244E-04 0.691E-04
   -.881E+01 -.387E+01 -.465E+02   0.871E+01 0.410E+01 0.510E+02   0.966E-01 -.233E+00 -.446E+01   0.429E-04 0.243E-04 0.687E-04
   -.881E+01 -.387E+01 -.465E+02   0.871E+01 0.410E+01 0.510E+02   0.966E-01 -.233E+00 -.446E+01   0.427E-04 0.247E-04 0.695E-04
   -.881E+01 -.387E+01 -.465E+02   0.871E+01 0.410E+01 0.510E+02   0.966E-01 -.233E+00 -.446E+01   0.430E-04 0.245E-04 0.697E-04
   -.881E+01 -.387E+01 -.465E+02   0.871E+01 0.410E+01 0.510E+02   0.966E-01 -.233E+00 -.446E+01   0.428E-04 0.243E-04 0.689E-04
   -.208E+02 -.345E+02 -.252E+02   0.221E+02 0.383E+02 0.272E+02   -.130E+01 -.379E+01 -.198E+01   0.140E-03 0.629E-05 0.358E-04
   -.208E+02 -.345E+02 -.252E+02   0.221E+02 0.383E+02 0.272E+02   -.130E+01 -.379E+01 -.198E+01   0.141E-03 0.615E-05 0.359E-04
   -.208E+02 -.345E+02 -.252E+02   0.221E+02 0.383E+02 0.272E+02   -.130E+01 -.379E+01 -.198E+01   0.141E-03 0.670E-05 0.359E-04
   -.208E+02 -.345E+02 -.252E+02   0.221E+02 0.383E+02 0.272E+02   -.130E+01 -.379E+01 -.198E+01   0.140E-03 0.666E-05 0.358E-04
   -.208E+02 -.345E+02 -.252E+02   0.221E+02 0.383E+02 0.272E+02   -.130E+01 -.379E+01 -.198E+01   0.140E-03 0.635E-05 0.355E-04
   -.208E+02 -.345E+02 -.252E+02   0.221E+02 0.383E+02 0.272E+02   -.130E+01 -.379E+01 -.198E+01   0.140E-03 0.667E-05 0.360E-04
   -.208E+02 -.345E+02 -.252E+02   0.221E+02 0.383E+02 0.272E+02   -.130E+01 -.379E+01 -.198E+01   0.141E-03 0.664E-05 0.361E-04
   -.208E+02 -.345E+02 -.252E+02   0.221E+02 0.383E+02 0.272E+02   -.130E+01 -.379E+01 -.198E+01   0.140E-03 0.607E-05 0.357E-04
   0.107E+01 -.223E+01 -.258E+01   -.440E+00 0.192E+01 0.249E+01   -.635E+00 0.316E+00 0.896E-01   0.251E-04 0.858E-04 0.235E-03
   0.107E+01 -.223E+01 -.258E+01   -.440E+00 0.192E+01 0.249E+01   -.635E+00 0.316E+00 0.896E-01   0.255E-04 0.858E-04 0.235E-03
   0.107E+01 -.223E+01 -.258E+01   -.440E+00 0.192E+01 0.249E+01   -.635E+00 0.316E+00 0.896E-01   0.254E-04 0.863E-04 0.235E-03
   0.107E+01 -.223E+01 -.258E+01   -.440E+00 0.192E+01 0.249E+01   -.635E+00 0.316E+00 0.896E-01   0.251E-04 0.860E-04 0.235E-03
   0.107E+01 -.223E+01 -.258E+01   -.440E+00 0.192E+01 0.249E+01   -.635E+00 0.316E+00 0.896E-01   0.251E-04 0.861E-04 0.235E-03
   0.107E+01 -.223E+01 -.258E+01   -.440E+00 0.192E+01 0.249E+01   -.635E+00 0.316E+00 0.896E-01   0.252E-04 0.859E-04 0.235E-03
   0.107E+01 -.223E+01 -.258E+01   -.440E+00 0.192E+01 0.249E+01   -.635E+00 0.316E+00 0.896E-01   0.252E-04 0.858E-04 0.235E-03
   0.107E+01 -.223E+01 -.258E+01   -.440E+00 0.192E+01 0.249E+01   -.635E+00 0.316E+00 0.896E-01   0.254E-04 0.860E-04 0.235E-03
   0.474E+02 0.372E+01 0.320E+02   -.542E+02 -.339E+01 -.354E+02   0.687E+01 -.334E+00 0.338E+01   -.141E-03 -.307E-03 -.123E-03
   0.474E+02 0.372E+01 0.320E+02   -.542E+02 -.339E+01 -.354E+02   0.687E+01 -.334E+00 0.338E+01   -.142E-03 -.307E-03 -.124E-03
   0.474E+02 0.372E+01 0.320E+02   -.542E+02 -.339E+01 -.354E+02   0.687E+01 -.334E+00 0.338E+01   -.141E-03 -.307E-03 -.123E-03
   0.474E+02 0.372E+01 0.320E+02   -.542E+02 -.339E+01 -.354E+02   0.687E+01 -.334E+00 0.338E+01   -.141E-03 -.307E-03 -.123E-03
   0.474E+02 0.372E+01 0.320E+02   -.542E+02 -.339E+01 -.354E+02   0.687E+01 -.334E+00 0.338E+01   -.141E-03 -.307E-03 -.123E-03
   0.474E+02 0.372E+01 0.320E+02   -.542E+02 -.339E+01 -.354E+02   0.687E+01 -.334E+00 0.338E+01   -.141E-03 -.307E-03 -.123E-03
   0.474E+02 0.372E+01 0.320E+02   -.542E+02 -.339E+01 -.354E+02   0.687E+01 -.334E+00 0.338E+01   -.141E-03 -.307E-03 -.123E-03
   0.474E+02 0.372E+01 0.320E+02   -.542E+02 -.339E+01 -.354E+02   0.687E+01 -.334E+00 0.338E+01   -.141E-03 -.307E-03 -.124E-03
   -.151E+02 -.109E+02 -.241E+02   0.170E+02 0.132E+02 0.285E+02   -.198E+01 -.231E+01 -.441E+01   0.132E-03 -.116E-03 0.133E-03
   -.151E+02 -.109E+02 -.241E+02   0.170E+02 0.132E+02 0.285E+02   -.198E+01 -.231E+01 -.441E+01   0.132E-03 -.116E-03 0.133E-03
   -.151E+02 -.109E+02 -.241E+02   0.170E+02 0.132E+02 0.285E+02   -.198E+01 -.231E+01 -.441E+01   0.131E-03 -.116E-03 0.133E-03
   -.151E+02 -.109E+02 -.241E+02   0.170E+02 0.132E+02 0.285E+02   -.198E+01 -.231E+01 -.441E+01   0.131E-03 -.115E-03 0.133E-03
   -.151E+02 -.109E+02 -.241E+02   0.170E+02 0.132E+02 0.285E+02   -.198E+01 -.231E+01 -.441E+01   0.131E-03 -.115E-03 0.133E-03
   -.151E+02 -.109E+02 -.241E+02   0.170E+02 0.132E+02 0.285E+02   -.198E+01 -.231E+01 -.441E+01   0.132E-03 -.116E-03 0.133E-03
   -.151E+02 -.109E+02 -.241E+02   0.170E+02 0.132E+02 0.285E+02   -.198E+01 -.231E+01 -.441E+01   0.132E-03 -.116E-03 0.133E-03
   -.151E+02 -.109E+02 -.241E+02   0.170E+02 0.132E+02 0.285E+02   -.198E+01 -.231E+01 -.441E+01   0.132E-03 -.115E-03 0.133E-03
   0.204E+02 0.103E+02 0.261E+02   -.229E+02 -.128E+02 -.312E+02   0.255E+01 0.256E+01 0.509E+01   -.785E-03 -.135E-03 -.354E-03
   0.204E+02 0.103E+02 0.261E+02   -.229E+02 -.128E+02 -.312E+02   0.255E+01 0.256E+01 0.509E+01   -.784E-03 -.135E-03 -.353E-03
   0.204E+02 0.103E+02 0.261E+02   -.229E+02 -.128E+02 -.312E+02   0.255E+01 0.256E+01 0.509E+01   -.785E-03 -.134E-03 -.353E-03
   0.204E+02 0.103E+02 0.261E+02   -.229E+02 -.128E+02 -.312E+02   0.255E+01 0.256E+01 0.509E+01   -.785E-03 -.134E-03 -.353E-03
   0.204E+02 0.103E+02 0.261E+02   -.229E+02 -.128E+02 -.312E+02   0.255E+01 0.256E+01 0.509E+01   -.784E-03 -.134E-03 -.353E-03
   0.204E+02 0.103E+02 0.261E+02   -.229E+02 -.128E+02 -.312E+02   0.255E+01 0.256E+01 0.509E+01   -.785E-03 -.135E-03 -.353E-03
   0.204E+02 0.103E+02 0.261E+02   -.229E+02 -.128E+02 -.312E+02   0.255E+01 0.256E+01 0.509E+01   -.785E-03 -.135E-03 -.353E-03
   0.204E+02 0.103E+02 0.261E+02   -.229E+02 -.128E+02 -.312E+02   0.255E+01 0.256E+01 0.509E+01   -.785E-03 -.134E-03 -.353E-03
 -----------------------------------------------------------------------------------------------
   -.648E+01 -.792E+01 -.149E+02   -.104E-11 0.155E-12 0.355E-13   0.650E+01 0.794E+01 0.149E+02   -.461E-02 -.339E-02 -.279E-02
 
 
 POSITION                                       TOTAL-FORCE (eV/Angst)
 -----------------------------------------------------------------------------------
      2.77041      3.50744      6.58661         0.000168     -0.000156     -0.000031
      2.73557      3.56233     11.77402         0.000168     -0.000156     -0.000031
      4.44691      7.92354      8.73271         0.000168     -0.000156     -0.000031
      4.41207      7.97843     13.92012         0.000168     -0.000156     -0.000031
      7.34473      3.16271      8.66417         0.000168     -0.000156     -0.000031
      7.30989      3.21760     13.85158         0.000168     -0.000156     -0.000031
      9.02122      7.57881     10.81027         0.000168     -0.000156     -0.000031
      8.98638      7.63370     15.99768         0.000168     -0.000156     -0.000031
      5.00624      3.28480      5.02916         0.000008     -0.000135     -0.000366
      4.97140      3.33969     10.21657         0.000008     -0.000135     -0.000366
      6.68273      7.70090      7.17526         0.000008     -0.000135     -0.000366
      6.64790      7.75579     12.36267         0.000008     -0.000135     -0.000366
      9.58055      2.94007      7.10672         0.000008     -0.000135     -0.000366
      9.54572      2.99496     12.29413         0.000008     -0.000135     -0.000366
     11.25705      7.35617      9.25282         0.000008     -0.000135     -0.000366
     11.22221      7.41106     14.44023         0.000008     -0.000135     -0.000366
      4.17330      1.16281      6.50876        -0.000035     -0.000313      0.001185
      4.13846      1.21769     11.69617        -0.000035     -0.000313      0.001185
      5.84979      5.57891      8.65485        -0.000035     -0.000313      0.001185
      5.81495      5.63380     13.84227        -0.000035     -0.000313      0.001185
      8.74761      0.81808      8.58631        -0.000035     -0.000313      0.001185
      8.71277      0.87296     13.77372        -0.000035     -0.000313      0.001185
     10.42411      5.23418     10.73241        -0.000035     -0.000313      0.001185
     10.38927      5.28907     15.91982        -0.000035     -0.000313      0.001185
      3.44554      0.62127      2.82807         0.000129      0.000498      0.000200
      3.41070      0.67615      8.01548         0.000129      0.000498      0.000200
      5.12204      5.03737      4.97417         0.000129      0.000498      0.000200
      5.08720      5.09226     10.16158         0.000129      0.000498      0.000200
      8.01986      0.27654      4.90563         0.000129      0.000498      0.000200
      7.98502      0.33142     10.09304         0.000129      0.000498      0.000200
      9.69635      4.69264      7.05173         0.000129      0.000498      0.000200
      9.66151      4.74753     12.23914         0.000129      0.000498      0.000200
      1.21134      0.83271      4.39472        -0.000313     -0.000584      0.000098
      1.17651      0.88760      9.58213        -0.000313     -0.000584      0.000098
      2.88784      5.24881      6.54082        -0.000313     -0.000584      0.000098
      2.85300      5.30370     11.72823        -0.000313     -0.000584      0.000098
      5.78566      0.48798      6.47227        -0.000313     -0.000584      0.000098
      5.75082      0.54287     11.65968        -0.000313     -0.000584      0.000098
      7.46216      4.90408      8.61837        -0.000313     -0.000584      0.000098
      7.42732      4.95897     13.80578        -0.000313     -0.000584      0.000098
      2.05237      2.97538      2.90059         0.000117      0.001054     -0.001685
      2.01753      3.03027      8.08800         0.000117      0.001054     -0.001685
      3.72887      7.39148      5.04669         0.000117      0.001054     -0.001685
      3.69403      7.44637     10.23410         0.000117      0.001054     -0.001685
      6.62669      2.63065      4.97814         0.000117      0.001054     -0.001685
      6.59185      2.68553     10.16555         0.000117      0.001054     -0.001685
      8.30318      7.04675      7.12424         0.000117      0.001054     -0.001685
      8.26834      7.10164     12.31165         0.000117      0.001054     -0.001685
      6.16618      4.09644      7.68923        -0.000545      0.000282     -0.000040
      6.13134      4.15133     12.87664        -0.000545      0.000282     -0.000040
      7.84267      8.51255      9.83533        -0.000545      0.000282     -0.000040
      7.80783      8.56743     15.02274        -0.000545      0.000282     -0.000040
     10.74049      3.75171      9.76678        -0.000545      0.000282     -0.000040
     10.70565      3.80660     14.95419        -0.000545      0.000282     -0.000040
     12.41699      8.16781     11.91288        -0.000545      0.000282     -0.000040
     12.38215      8.22270     17.10029        -0.000545      0.000282     -0.000040
      5.61533      2.69239      8.66837        -0.000383     -0.000071      0.000555
      5.58049      2.74728     13.85578        -0.000383     -0.000071      0.000555
      7.29182      7.10849     10.81447        -0.000383     -0.000071      0.000555
      7.25698      7.16338     16.00188        -0.000383     -0.000071      0.000555
     10.18964      2.34766     10.74593        -0.000383     -0.000071      0.000555
     10.15480      2.40255     15.93334        -0.000383     -0.000071      0.000555
     11.86614      6.76376     12.89202        -0.000383     -0.000071      0.000555
     11.83130      6.81865     18.07943        -0.000383     -0.000071      0.000555
      1.57259     -0.08726      0.75920         0.000647     -0.000289     -0.000193
      1.53775     -0.03237      5.94661         0.000647     -0.000289     -0.000193
      3.24908      4.32884      2.90530         0.000647     -0.000289     -0.000193
      3.21425      4.38373      8.09271         0.000647     -0.000289     -0.000193
      6.14690     -0.43199      2.83675         0.000647     -0.000289     -0.000193
      6.11207     -0.37710      8.02416         0.000647     -0.000289     -0.000193
      7.82340      3.98411      4.98285         0.000647     -0.000289     -0.000193
      7.78856      4.03900     10.17026         0.000647     -0.000289     -0.000193
      0.03639      0.03572      1.73768        -0.000033     -0.000247      0.000500
      0.00155      0.09061      6.92509        -0.000033     -0.000247      0.000500
      1.71289      4.45182      3.88378        -0.000033     -0.000247      0.000500
      1.67805      4.50671      9.07119        -0.000033     -0.000247      0.000500
      4.61071     -0.30901      3.81524        -0.000033     -0.000247      0.000500
      4.57587     -0.25413      9.00265        -0.000033     -0.000247      0.000500
      6.28720      4.10709      5.96133        -0.000033     -0.000247      0.000500
      6.25237      4.16198     11.14874        -0.000033     -0.000247      0.000500
      0.59209      1.45262      0.74964         0.001207     -0.000665      0.000280
      0.55725      1.50750      5.93705         0.001207     -0.000665      0.000280
      2.26858      5.86872      2.89574         0.001207     -0.000665      0.000280
      2.23374      5.92361      8.08315         0.001207     -0.000665      0.000280
      5.16640      1.10789      2.82720         0.001207     -0.000665      0.000280
      5.13157      1.16277      8.01461         0.001207     -0.000665      0.000280
      6.84290      5.52399      4.97330         0.001207     -0.000665      0.000280
      6.80806      5.57888     10.16071         0.001207     -0.000665      0.000280
      3.06912      2.05767      4.67558        -0.001299      0.000279     -0.000325
      3.03428      2.11256      9.86299        -0.001299      0.000279     -0.000325
      4.74561      6.47377      6.82168        -0.001299      0.000279     -0.000325
      4.71078      6.52866     12.00909        -0.001299      0.000279     -0.000325
      7.64343      1.71294      6.75313        -0.001299      0.000279     -0.000325
      7.60860      1.76783     11.94054        -0.001299      0.000279     -0.000325
      9.31993      6.12904      8.89923        -0.001299      0.000279     -0.000325
      9.28509      6.18393     14.08664        -0.001299      0.000279     -0.000325
      4.73852      4.21583      8.70871        -0.000457      0.000253     -0.000105
      4.70368      4.27072     13.89612        -0.000457      0.000253     -0.000105
      3.06202     -0.20027      6.56261        -0.000457      0.000253     -0.000105
      3.02718     -0.14538     11.75002        -0.000457      0.000253     -0.000105
      9.31283      3.87110     10.78627        -0.000457      0.000253     -0.000105
      9.27799      3.92599     15.97368        -0.000457      0.000253     -0.000105
      7.63634     -0.54500      8.64017        -0.000457      0.000253     -0.000105
      7.60150     -0.49011     13.82758        -0.000457      0.000253     -0.000105
      3.79714      2.56167      5.80739        -0.000126      0.000317     -0.000615
      3.76230      2.61656     10.99480        -0.000126      0.000317     -0.000615
      5.47363      6.97778      7.95349        -0.000126      0.000317     -0.000615
      5.43880      7.03266     13.14090        -0.000126      0.000317     -0.000615
      8.37145      2.21694      7.88494        -0.000126      0.000317     -0.000615
      8.33662      2.27183     13.07235        -0.000126      0.000317     -0.000615
     10.04795      6.63304     10.03104        -0.000126      0.000317     -0.000615
     10.01311      6.68793     15.21845        -0.000126      0.000317     -0.000615
      2.37328      1.53745      3.53928         0.000916     -0.000222      0.000542
      2.33844      1.59234      8.72669         0.000916     -0.000222      0.000542
      4.04978      5.95355      5.68538         0.000916     -0.000222      0.000542
      4.01494      6.00844     10.87279         0.000916     -0.000222      0.000542
      6.94760      1.19272      5.61684         0.000916     -0.000222      0.000542
      6.91276      1.24761     10.80425         0.000916     -0.000222      0.000542
      8.62409      5.60882      7.76294         0.000916     -0.000222      0.000542
      8.58926      5.66371     12.95035         0.000916     -0.000222      0.000542
 -----------------------------------------------------------------------------------
    total drift:                                0.008544      0.012669     -0.008310


--------------------------------------------------------------------------------------------------------



  FREE ENERGIE OF THE ION-ELECTRON SYSTEM (eV)
  ---------------------------------------------------
  free  energy   TOTEN  =      -877.27878279 eV

  energy  without entropy=     -877.27878279  energy(sigma->0) =     -877.27878279
 
 d Force = 0.6057239E-06[ 0.123E-07, 0.120E-05]  d Energy = 0.6983209E-06-0.926E-07
 d Force =-0.2588496E-01[-0.259E-01,-0.259E-01]  d Ewald  =-0.2579967E-01-0.853E-04


--------------------------------------------------------------------------------------------------------


    POTLOK:  cpu time    0.3068: real time    0.3066


--------------------------------------------------------------------------------------------------------




--------------------------------------------------------------------------------------------------------


  
 reached required accuracy - stopping structural energy minimisation
     LOOP+:  cpu time   33.1924: real time   33.4010
    4ORBIT:  cpu time    0.0000: real time    0.0000
 BZINTS: Fermi energy:    8.091751;  384.000000 electrons
         Band energy:-0.355647E+03;  BLOECHL correction:    0.000000

 total amount of memory used by VASP MPI-rank0  1889440. kBytes
=======================================================================

   base      :      30000. kBytes
   nonlr-proj:      55956. kBytes
   fftplans  :     213988. kBytes
   grid      :     382371. kBytes
   one-center:        368. kBytes
   wavefun   :    1206757. kBytes
 
  
  
 General timing and accounting informations for this job:
 ========================================================
  
                  Total CPU time used (sec):     2519.929
                            User time (sec):     2040.050
                          System time (sec):      479.879
                         Elapsed time (sec):     2512.922
  
                   Maximum memory used (kb):     3910420.
                   Average memory used (kb):          N/A
  
                          Minor page faults:     32090261
                          Major page faults:            0
                 Voluntary context switches:       617427
