<?xml version="1.0" encoding="ISO-8859-1"?>
<modeling>
 <generator>
  <i name="program" type="string">vasp </i>
  <i name="version" type="string">6.2.0  </i>
  <i name="subversion" type="string">18Jan21 (build Feb 25 2021 07:51:20) complex                          parallel </i>
  <i name="platform" type="string">LinuxPGI </i>
  <i name="date" type="string">2022 05 17 </i>
  <i name="time" type="string">21:13:51 </i>
 </generator>
 <incar>
  <i type="string" name="PREC">Accurate</i>
  <i type="string" name="ALGO">Fast</i>
  <i type="int" name="IBRION">     2</i>
  <i name="EDIFF">      0.00000100</i>
  <i type="int" name="NSW">   300</i>
  <i type="int" name="ISIF">     4</i>
  <i name="ENCUT">    700.00000000</i>
  <i type="string" name="LREAL">Auto</i>
  <i type="int" name="ISMEAR">    -5</i>
  <i name="SIGMA">      0.05000000</i>
  <i type="logical" name="LWAVE"> F  </i>
 </incar>
 <primitive_cell>
  <structure name="primitive_cell" >
   <crystal>
    <varray name="basis" >
     <v>       2.06633900       4.49117050       2.14292350 </v>
     <v>      -2.55722000       4.46639950       0.04735200 </v>
     <v>      -0.01995950       0.03555250       5.20403150 </v>
    </varray>
    <i name="volume">    107.78482930 </i>
    <varray name="rec_basis" >
     <v>       0.21562961       0.12345808      -0.00001641 </v>
     <v>      -0.21613437       0.10016312      -0.00151325 </v>
     <v>      -0.08682564      -0.05174914       0.19217924 </v>
    </varray>
   </crystal>
   <varray name="positions" >
    <v>       0.12336200       0.68415400       0.80751600 </v>
    <v>       0.60794000       0.19673600       0.31444000 </v>
    <v>       0.11770400       0.19673600       0.80467600 </v>
    <v>       0.87606200       0.31726800       0.19333000 </v>
    <v>       0.39107200       0.80260000       0.68742200 </v>
    <v>       0.88482200       0.80260000       0.19367200 </v>
    <v>       0.98369200       0.01110600       0.67359600 </v>
    <v>       0.66249000       0.01110600       0.99479800 </v>
    <v>       0.34749000       0.65841000       0.00590000 </v>
    <v>       0.01246000       0.99305000       0.32872400 </v>
    <v>       0.33567400       0.99305000       0.00551000 </v>
    <v>       0.99400800       0.50401000       0.49801800 </v>
    <v>       0.67252800       0.32332800       0.99585600 </v>
    <v>       0.23105000       0.38782400       0.61887400 </v>
    <v>       0.75964800       0.61802200       0.37767000 </v>
   </varray>
  </structure>
  <varray name="primitive_index" >
   <v type="int" >        1 </v>
   <v type="int" >        9 </v>
   <v type="int" >       17 </v>
   <v type="int" >       28 </v>
   <v type="int" >       35 </v>
   <v type="int" >       42 </v>
   <v type="int" >       53 </v>
   <v type="int" >       61 </v>
   <v type="int" >       68 </v>
   <v type="int" >       75 </v>
   <v type="int" >       82 </v>
   <v type="int" >       89 </v>
   <v type="int" >       97 </v>
   <v type="int" >      105 </v>
   <v type="int" >      113 </v>
  </varray>
 </primitive_cell>
 <kpoints>
  <generation param="Gamma">
   <v type="int" name="divisions">       2        2        2 </v>
   <v name="usershift">      0.00000000       0.00000000       0.00000000 </v>
   <v name="genvec1">      0.50000000       0.00000000      -0.00000000 </v>
   <v name="genvec2">      0.00000000       0.50000000       0.00000000 </v>
   <v name="genvec3">     -0.00000000      -0.00000000       0.50000000 </v>
   <v name="shift">      0.00000000       0.00000000       0.00000000 </v>
  </generation>
  <varray name="kpointlist" >
   <v>       0.00000000       0.00000000       0.00000000 </v>
   <v>       0.50000000       0.00000000       0.00000000 </v>
   <v>       0.00000000       0.50000000       0.00000000 </v>
   <v>       0.50000000       0.50000000       0.00000000 </v>
   <v>       0.00000000       0.00000000       0.50000000 </v>
   <v>       0.50000000       0.00000000       0.50000000 </v>
   <v>       0.00000000       0.50000000       0.50000000 </v>
   <v>       0.50000000       0.50000000       0.50000000 </v>
  </varray>
  <varray name="weights" >
   <v>       0.12500000 </v>
   <v>       0.12500000 </v>
   <v>       0.12500000 </v>
   <v>       0.12500000 </v>
   <v>       0.12500000 </v>
   <v>       0.12500000 </v>
   <v>       0.12500000 </v>
   <v>       0.12500000 </v>
  </varray>
  <varray name="tetrahedronlist"  type="int" >
   <v type="int" >        2        1        3        4        8 </v>
   <v type="int" >        2        1        2        4        8 </v>
   <v type="int" >        2        1        2        6        8 </v>
   <v type="int" >        2        1        3        7        8 </v>
   <v type="int" >        2        1        5        7        8 </v>
   <v type="int" >        2        1        5        6        8 </v>
   <v type="int" >        2        2        3        4        7 </v>
   <v type="int" >        2        1        2        3        7 </v>
   <v type="int" >        2        1        2        5        7 </v>
   <v type="int" >        2        2        4        7        8 </v>
   <v type="int" >        2        2        6        7        8 </v>
   <v type="int" >        2        2        5        6        7 </v>
   <v type="int" >        2        1        2        3        6 </v>
   <v type="int" >        2        2        3        4        6 </v>
   <v type="int" >        2        3        4        6        8 </v>
   <v type="int" >        2        1        3        5        6 </v>
   <v type="int" >        2        3        5        6        7 </v>
   <v type="int" >        2        3        6        7        8 </v>
   <v type="int" >        2        1        2        4        5 </v>
   <v type="int" >        2        1        3        4        5 </v>
   <v type="int" >        2        3        4        5        7 </v>
   <v type="int" >        2        2        4        5        6 </v>
   <v type="int" >        2        4        5        6        8 </v>
   <v type="int" >        2        4        5        7        8 </v>
  </varray>
  <i name="volumeweight">      0.02083333 </i>
 </kpoints>
 <parameters>
  <separator name="general" >
   <i type="string" name="SYSTEM">unknown system</i>
   <i type="logical" name="LCOMPAT"> F  </i>
  </separator>
  <separator name="electronic" >
   <i type="string" name="PREC">accura</i>
   <i name="ENMAX">    700.00000000</i>
   <i name="ENAUG">    644.87300000</i>
   <i name="EDIFF">      0.00000100</i>
   <i type="int" name="IALGO">    68</i>
   <i type="int" name="IWAVPR">    11</i>
   <i type="int" name="NBANDS">   253</i>
   <i type="int" name="NBANDSLOW">    -1</i>
   <i type="int" name="NBANDSHIGH">    -1</i>
   <i name="NELECT">    384.00000000</i>
   <i type="int" name="TURBO">     0</i>
   <i type="int" name="IRESTART">     0</i>
   <i type="int" name="NREBOOT">     0</i>
   <i type="int" name="NMIN">     0</i>
   <i name="EREF">      0.00000000</i>
   <separator name="electronic smearing" >
    <i type="int" name="ISMEAR">    -5</i>
    <i name="SIGMA">      0.05000000</i>
    <i name="KSPACING">      0.50000000</i>
    <i type="logical" name="KGAMMA"> T  </i>
    <i type="logical" name="KBLOWUP"> T  </i>
   </separator>
   <separator name="electronic projectors" >
    <i type="logical" name="LREAL"> T  </i>
    <v name="ROPT">     -0.00025000     -0.00025000</v>
    <i type="int" name="LMAXPAW">  -100</i>
    <i type="int" name="LMAXMIX">     2</i>
    <i type="logical" name="NLSPLINE"> F  </i>
   </separator>
   <separator name="electronic startup" >
    <i type="int" name="ISTART">     0</i>
    <i type="int" name="ICHARG">     2</i>
    <i type="int" name="INIWAV">     1</i>
   </separator>
   <separator name="electronic spin" >
    <i type="int" name="ISPIN">     1</i>
    <i type="logical" name="LNONCOLLINEAR"> F  </i>
    <v name="MAGMOM">      1.00000000      1.00000000      1.00000000      1.00000000      1.00000000      1.00000000      1.00000000      1.00000000      1.00000000      1.00000000      1.00000000      1.00000000      1.00000000      1.00000000      1.00000000      1.00000000      1.00000000      1.00000000      1.00000000      1.00000000
      1.00000000      1.00000000      1.00000000      1.00000000      1.00000000      1.00000000      1.00000000      1.00000000      1.00000000      1.00000000      1.00000000      1.00000000      1.00000000      1.00000000      1.00000000      1.00000000      1.00000000      1.00000000      1.00000000      1.00000000
      1.00000000      1.00000000      1.00000000      1.00000000      1.00000000      1.00000000      1.00000000      1.00000000      1.00000000      1.00000000      1.00000000      1.00000000      1.00000000      1.00000000      1.00000000      1.00000000      1.00000000      1.00000000      1.00000000      1.00000000
      1.00000000      1.00000000      1.00000000      1.00000000      1.00000000      1.00000000      1.00000000      1.00000000      1.00000000      1.00000000      1.00000000      1.00000000      1.00000000      1.00000000      1.00000000      1.00000000      1.00000000      1.00000000      1.00000000      1.00000000
      1.00000000      1.00000000      1.00000000      1.00000000      1.00000000      1.00000000      1.00000000      1.00000000      1.00000000      1.00000000      1.00000000      1.00000000      1.00000000      1.00000000      1.00000000      1.00000000      1.00000000      1.00000000      1.00000000      1.00000000
      1.00000000      1.00000000      1.00000000      1.00000000      1.00000000      1.00000000      1.00000000      1.00000000      1.00000000      1.00000000      1.00000000      1.00000000      1.00000000      1.00000000      1.00000000      1.00000000      1.00000000      1.00000000      1.00000000      1.00000000
</v>
    <i name="NUPDOWN">     -1.00000000</i>
    <i type="logical" name="LSORBIT"> F  </i>
    <v name="SAXIS">      0.00000000      0.00000000      1.00000000</v>
    <i type="logical" name="LSPIRAL"> F  </i>
    <v name="QSPIRAL">      0.00000000      0.00000000      0.00000000</v>
    <i type="logical" name="LZEROZ"> F  </i>
   </separator>
   <separator name="electronic exchange-correlation" >
    <i type="logical" name="LASPH"> F  </i>
    <i type="logical" name="LMETAGGA"> F  </i>
   </separator>
   <separator name="electronic convergence" >
    <i type="int" name="NELM">    60</i>
    <i type="int" name="NELMDL">    -5</i>
    <i type="int" name="NELMIN">     2</i>
    <i name="ENINI">    700.00000000</i>
    <separator name="electronic convergence detail" >
     <i type="logical" name="LDIAG"> T  </i>
     <i type="logical" name="LSUBROT"> F  </i>
     <i name="WEIMIN">      0.00100000</i>
     <i name="EBREAK">      0.00000000</i>
     <i name="DEPER">      0.30000000</i>
     <i type="int" name="NRMM">     4</i>
     <i name="TIME">      0.40000000</i>
    </separator>
   </separator>
   <separator name="electronic mixer" >
    <i name="AMIX">      0.40000000</i>
    <i name="BMIX">      1.00000000</i>
    <i name="AMIN">      0.10000000</i>
    <i name="AMIX_MAG">      1.60000000</i>
    <i name="BMIX_MAG">      1.00000000</i>
    <separator name="electronic mixer details" >
     <i type="int" name="IMIX">     4</i>
     <i type="logical" name="MIXFIRST"> F  </i>
     <i type="int" name="MAXMIX">   -45</i>
     <i name="WC">    100.00000000</i>
     <i type="int" name="INIMIX">     1</i>
     <i type="int" name="MIXPRE">     1</i>
     <i type="int" name="MREMOVE">     5</i>
    </separator>
   </separator>
   <separator name="electronic dipolcorrection" >
    <i type="logical" name="LDIPOL"> F  </i>
    <i type="logical" name="LMONO"> F  </i>
    <i type="int" name="IDIPOL">     0</i>
    <i name="EPSILON">      1.00000000</i>
    <v name="DIPOL">   -100.00000000   -100.00000000   -100.00000000</v>
    <i name="EFIELD">      0.00000000</i>
   </separator>
  </separator>
  <separator name="grids" >
   <i type="int" name="NGX">    90</i>
   <i type="int" name="NGY">    96</i>
   <i type="int" name="NGZ">    90</i>
   <i type="int" name="NGXF">   180</i>
   <i type="int" name="NGYF">   192</i>
   <i type="int" name="NGZF">   180</i>
   <i type="logical" name="ADDGRID"> F  </i>
  </separator>
  <separator name="ionic" >
   <i type="int" name="NSW">   300</i>
   <i type="int" name="IBRION">     2</i>
   <i type="int" name="MDALGO">     0</i>
   <i type="int" name="ISIF">     4</i>
   <i name="PSTRESS">      0.00000000</i>
   <i name="EDIFFG">      0.00001000</i>
   <i type="int" name="NFREE">     1</i>
   <i name="POTIM">      0.50000000</i>
   <i name="SMASS">     -3.00000000</i>
   <i name="SCALEE">      1.00000000</i>
  </separator>
  <separator name="ionic md" >
   <i name="TEBEG">      0.00010000</i>
   <i name="TEEND">      0.00010000</i>
   <i type="int" name="NBLOCK">     1</i>
   <i type="int" name="KBLOCK">   300</i>
   <i type="int" name="NPACO">   256</i>
   <i name="APACO">     16.00000000</i>
  </separator>
  <separator name="symmetry" >
   <i type="int" name="ISYM">     2</i>
   <i name="SYMPREC">      0.00001000</i>
  </separator>
  <separator name="dos" >
   <i type="int" name="LORBIT">     0</i>
   <v name="RWIGS">     -1.00000000     -1.00000000</v>
   <i type="int" name="NEDOS">   301</i>
   <i name="EMIN">     10.00000000</i>
   <i name="EMAX">    -10.00000000</i>
   <i name="EFERMI">      0.00000000</i>
  </separator>
  <separator name="writing" >
   <i type="int" name="NWRITE">     2</i>
   <i type="logical" name="LWAVE"> F  </i>
   <i type="logical" name="LDOWNSAMPLE"> F  </i>
   <i type="logical" name="LCHARG"> T  </i>
   <i type="logical" name="LPARD"> F  </i>
   <i type="logical" name="LVTOT"> F  </i>
   <i type="logical" name="LVHAR"> F  </i>
   <i type="logical" name="LELF"> F  </i>
   <i type="logical" name="LOPTICS"> F  </i>
   <v name="STM">      0.00000000      0.00000000      0.00000000      0.00000000      0.00000000      0.00000000      0.00000000</v>
  </separator>
  <separator name="performance" >
   <i type="int" name="NPAR">     1</i>
   <i type="int" name="NSIM">     4</i>
   <i type="int" name="NBLK">    -1</i>
   <i type="logical" name="LPLANE"> T  </i>
   <i type="logical" name="LSCALAPACK"> T  </i>
   <i type="logical" name="LSCAAWARE"> F  </i>
   <i type="logical" name="LSCALU"> F  </i>
   <i type="logical" name="LASYNC"> F  </i>
   <i type="logical" name="LORBITALREAL"> F  </i>
  </separator>
  <separator name="miscellaneous" >
   <i type="int" name="IDIOT">     3</i>
   <i type="int" name="PHON_NSTRUCT">    -1</i>
   <i type="logical" name="LMUSIC"> F  </i>
   <v name="POMASS">     10.81100000     12.01100000</v>
   <v name="DARWINR">      0.00000000      0.00000000</v>
   <v name="DARWINV">      1.00000000      1.00000000</v>
   <i type="logical" name="LCORR"> T  </i>
  </separator>
  <i type="logical" name="GGA_COMPAT"> T  </i>
  <i type="logical" name="LBERRY"> F  </i>
  <i type="int" name="ICORELEVEL">     0</i>
  <i type="logical" name="LDAU"> F  </i>
  <i type="int" name="I_CONSTRAINED_M">     0</i>
  <separator name="electronic exchange-correlation" >
   <i type="string" name="GGA">--</i>
   <i type="int" name="VOSKOWN">     0</i>
   <i type="logical" name="LHFCALC"> F  </i>
   <i type="string" name="PRECFOCK"></i>
   <i type="logical" name="LSYMGRAD"> F  </i>
   <i type="logical" name="LHFONE"> F  </i>
   <i type="logical" name="LRHFCALC"> F  </i>
   <i type="logical" name="LTHOMAS"> F  </i>
   <i type="logical" name="LMODELHF"> F  </i>
   <i type="logical" name="LFOCKACE"> F  </i>
   <i name="ENCUT4O">     -1.00000000</i>
   <i type="int" name="EXXOEP">     0</i>
   <i type="int" name="FOURORBIT">     0</i>
   <i name="AEXX">      0.00000000</i>
   <i name="HFALPHA">      0.00000000</i>
   <i name="MCALPHA">      0.00000000</i>
   <i name="ALDAX">      1.00000000</i>
   <i name="AGGAX">      1.00000000</i>
   <i name="ALDAC">      1.00000000</i>
   <i name="AGGAC">      1.00000000</i>
   <i type="int" name="NKREDX">     1</i>
   <i type="int" name="NKREDY">     1</i>
   <i type="int" name="NKREDZ">     1</i>
   <i type="logical" name="SHIFTRED"> F  </i>
   <i type="logical" name="ODDONLY"> F  </i>
   <i type="logical" name="EVENONLY"> F  </i>
   <i type="int" name="LMAXFOCK">     0</i>
   <i type="int" name="NMAXFOCKAE">     0</i>
   <i type="logical" name="LFOCKAEDFT"> F  </i>
   <i name="HFSCREEN">      0.00000000</i>
   <i name="HFSCREENC">      0.00000000</i>
   <i type="int" name="NBANDSGWLOW">     0</i>
  </separator>
  <separator name="vdW DFT" >
   <i type="logical" name="LUSE_VDW"> F  </i>
   <i name="Zab_VDW">     -0.84910000</i>
   <i name="PARAM1">      0.12340000</i>
   <i name="PARAM2">      1.00000000</i>
   <i name="PARAM3">      0.00000000</i>
  </separator>
  <separator name="model GW" >
   <i type="int" name="MODEL_GW">     0</i>
   <i name="MODEL_EPS0">      4.31139317</i>
   <i name="MODEL_ALPHA">      1.00000000</i>
  </separator>
  <separator name="linear response parameters" >
   <i type="logical" name="LEPSILON"> F  </i>
   <i type="logical" name="LRPA"> F  </i>
   <i type="logical" name="LNABLA"> F  </i>
   <i type="logical" name="LVEL"> F  </i>
   <i type="int" name="KINTER">     0</i>
   <i name="CSHIFT">      0.10000000</i>
   <i name="OMEGAMAX">     -1.00000000</i>
   <i name="DEG_THRESHOLD">      0.00200000</i>
   <i name="RTIME">     -0.10000000</i>
   <i name="WPLASMAI">      0.00000000</i>
   <v name="DFIELD">      0.00000000      0.00000000      0.00000000</v>
   <v name="WPLASMA">      0.00000000      0.00000000      0.00000000      0.00000000      0.00000000      0.00000000      0.00000000      0.00000000      0.00000000</v>
  </separator>
  <separator name="orbital magnetization" >
   <i type="logical" name="NUCIND"> F  </i>
   <v name="MAGPOS">      0.00000000      0.00000000      0.00000000</v>
   <i type="logical" name="LNICSALL"> T  </i>
   <i type="logical" name="ORBITALMAG"> F  </i>
   <i type="logical" name="LMAGBLOCH"> F  </i>
   <i type="logical" name="LCHIMAG"> F  </i>
   <i type="logical" name="LGAUGE"> T  </i>
   <i type="int" name="MAGATOM">     0</i>
   <v name="MAGDIPOL">      0.00000000      0.00000000      0.00000000</v>
   <v name="AVECCONST">      0.00000000      0.00000000      0.00000000</v>
  </separator>
  <separator name="response functions" >
   <i type="logical" name="LFINITE_TEMPERATURE"> F  </i>
   <i type="logical" name="LADDER"> F  </i>
   <i type="logical" name="LRPAFORCE"> F  </i>
   <i type="logical" name="LFXC"> F  </i>
   <i type="logical" name="LHARTREE"> T  </i>
   <i type="int" name="IBSE">     0</i>
   <v type="int" name="KPOINT">    -1     0     0     0</v>
   <i type="logical" name="LTCTC"> F  </i>
   <i type="logical" name="LTCTE"> F  </i>
   <i type="logical" name="LTETE"> F  </i>
   <i type="logical" name="LTRIPLET"> F  </i>
   <i type="logical" name="LFXCEPS"> F  </i>
   <i type="logical" name="LFXHEG"> F  </i>
   <i type="int" name="NATURALO">     2</i>
   <i type="logical" name="LHOLEGF"> F  </i>
   <i type="logical" name="L2ORDER"> F  </i>
   <i type="logical" name="LDMP1"> F  </i>
   <i type="logical" name="LMP2LT"> F  </i>
   <i type="logical" name="LSMP2LT"> F  </i>
   <i type="logical" name="LGWLF"> F  </i>
   <i name="ENCUTGW">     -2.00000000</i>
   <i name="ENCUTGWSOFT">     -2.00000000</i>
   <i name="ENCUTLF">     -1.00000000</i>
   <i type="logical" name="LESF_SPLINES"> F  </i>
   <i type="int" name="LMAXMP2">    -1</i>
   <i name="SCISSOR">      0.00000000</i>
   <i type="int" name="NOMEGA">     0</i>
   <i type="int" name="NOMEGAR">     0</i>
   <i type="int" name="NBANDSGW">    -1</i>
   <i type="int" name="NBANDSO">    -1</i>
   <i type="int" name="NBANDSV">    -1</i>
   <i type="int" name="NELM">     1</i>
   <i type="int" name="NELMHF">     1</i>
   <i type="int" name="DIM">     3</i>
   <i type="int" name="IESPILON">     4</i>
   <i type="int" name="ANTIRES">     0</i>
   <i name="OMEGAMAX">    -30.00000000</i>
   <i name="OMEGAMIN">    -30.00000000</i>
   <i name="OMEGATL">   -200.00000000</i>
   <i type="int" name="OMEGAGRID">     0</i>
   <i name="CSHIFT">     -0.10000000</i>
   <i type="logical" name="LSELFENERGY"> F  </i>
   <i type="logical" name="LSPECTRAL"> F  </i>
   <i type="logical" name="LSPECTRALGW"> F  </i>
   <i type="logical" name="LSINGLES"> F  </i>
   <i type="logical" name="LFERMIGW"> F  </i>
   <i type="logical" name="ODDONLYGW"> F  </i>
   <i type="logical" name="EVENONLYGW"> F  </i>
   <i type="int" name="NKREDLFX">     1</i>
   <i type="int" name="NKREDLFY">     1</i>
   <i type="int" name="NKREDLFZ">     1</i>
   <i type="int" name="MAXMEM">  2800</i>
   <i type="int" name="TELESCOPE">     0</i>
   <i type="int" name="NTAUPAR">    -1</i>
   <i type="int" name="NOMEGAPAR">    -1</i>
   <i name="DAMP_NEWTON">      0.80000001</i>
   <i name="LAMBDA">      1.00000000</i>
  </separator>
  <separator name="External order field" >
   <i name="OFIELD_KAPPA">      0.00000000</i>
   <v name="OFIELD_K">      0.00000000      0.00000000      0.00000000</v>
   <i name="OFIELD_Q6_NEAR">      0.00000000</i>
   <i name="OFIELD_Q6_FAR">      0.00000000</i>
   <i name="OFIELD_A">      0.00000000</i>
  </separator>
 </parameters>
 <atominfo>
  <atoms>     120 </atoms>
  <types>       2 </types>
  <array name="atoms" >
   <dimension dim="1">ion</dimension>
   <field type="string">element</field>
   <field type="int">atomtype</field>
   <set>
    <rc><c>B </c><c>   1</c></rc>
    <rc><c>B </c><c>   1</c></rc>
    <rc><c>B </c><c>   1</c></rc>
    <rc><c>B </c><c>   1</c></rc>
    <rc><c>B </c><c>   1</c></rc>
    <rc><c>B </c><c>   1</c></rc>
    <rc><c>B </c><c>   1</c></rc>
    <rc><c>B </c><c>   1</c></rc>
    <rc><c>B </c><c>   1</c></rc>
    <rc><c>B </c><c>   1</c></rc>
    <rc><c>B </c><c>   1</c></rc>
    <rc><c>B </c><c>   1</c></rc>
    <rc><c>B </c><c>   1</c></rc>
    <rc><c>B </c><c>   1</c></rc>
    <rc><c>B </c><c>   1</c></rc>
    <rc><c>B </c><c>   1</c></rc>
    <rc><c>B </c><c>   1</c></rc>
    <rc><c>B </c><c>   1</c></rc>
    <rc><c>B </c><c>   1</c></rc>
    <rc><c>B </c><c>   1</c></rc>
    <rc><c>B </c><c>   1</c></rc>
    <rc><c>B </c><c>   1</c></rc>
    <rc><c>B </c><c>   1</c></rc>
    <rc><c>B </c><c>   1</c></rc>
    <rc><c>B </c><c>   1</c></rc>
    <rc><c>B </c><c>   1</c></rc>
    <rc><c>B </c><c>   1</c></rc>
    <rc><c>B </c><c>   1</c></rc>
    <rc><c>B </c><c>   1</c></rc>
    <rc><c>B </c><c>   1</c></rc>
    <rc><c>B </c><c>   1</c></rc>
    <rc><c>B </c><c>   1</c></rc>
    <rc><c>B </c><c>   1</c></rc>
    <rc><c>B </c><c>   1</c></rc>
    <rc><c>B </c><c>   1</c></rc>
    <rc><c>B </c><c>   1</c></rc>
    <rc><c>B </c><c>   1</c></rc>
    <rc><c>B </c><c>   1</c></rc>
    <rc><c>B </c><c>   1</c></rc>
    <rc><c>B </c><c>   1</c></rc>
    <rc><c>B </c><c>   1</c></rc>
    <rc><c>B </c><c>   1</c></rc>
    <rc><c>B </c><c>   1</c></rc>
    <rc><c>B </c><c>   1</c></rc>
    <rc><c>B </c><c>   1</c></rc>
    <rc><c>B </c><c>   1</c></rc>
    <rc><c>B </c><c>   1</c></rc>
    <rc><c>B </c><c>   1</c></rc>
    <rc><c>B </c><c>   1</c></rc>
    <rc><c>B </c><c>   1</c></rc>
    <rc><c>B </c><c>   1</c></rc>
    <rc><c>B </c><c>   1</c></rc>
    <rc><c>B </c><c>   1</c></rc>
    <rc><c>B </c><c>   1</c></rc>
    <rc><c>B </c><c>   1</c></rc>
    <rc><c>B </c><c>   1</c></rc>
    <rc><c>B </c><c>   1</c></rc>
    <rc><c>B </c><c>   1</c></rc>
    <rc><c>B </c><c>   1</c></rc>
    <rc><c>B </c><c>   1</c></rc>
    <rc><c>B </c><c>   1</c></rc>
    <rc><c>B </c><c>   1</c></rc>
    <rc><c>B </c><c>   1</c></rc>
    <rc><c>B </c><c>   1</c></rc>
    <rc><c>B </c><c>   1</c></rc>
    <rc><c>B </c><c>   1</c></rc>
    <rc><c>B </c><c>   1</c></rc>
    <rc><c>B </c><c>   1</c></rc>
    <rc><c>B </c><c>   1</c></rc>
    <rc><c>B </c><c>   1</c></rc>
    <rc><c>B </c><c>   1</c></rc>
    <rc><c>B </c><c>   1</c></rc>
    <rc><c>B </c><c>   1</c></rc>
    <rc><c>B </c><c>   1</c></rc>
    <rc><c>B </c><c>   1</c></rc>
    <rc><c>B </c><c>   1</c></rc>
    <rc><c>B </c><c>   1</c></rc>
    <rc><c>B </c><c>   1</c></rc>
    <rc><c>B </c><c>   1</c></rc>
    <rc><c>B </c><c>   1</c></rc>
    <rc><c>B </c><c>   1</c></rc>
    <rc><c>B </c><c>   1</c></rc>
    <rc><c>B </c><c>   1</c></rc>
    <rc><c>B </c><c>   1</c></rc>
    <rc><c>B </c><c>   1</c></rc>
    <rc><c>B </c><c>   1</c></rc>
    <rc><c>B </c><c>   1</c></rc>
    <rc><c>B </c><c>   1</c></rc>
    <rc><c>B </c><c>   1</c></rc>
    <rc><c>B </c><c>   1</c></rc>
    <rc><c>B </c><c>   1</c></rc>
    <rc><c>B </c><c>   1</c></rc>
    <rc><c>B </c><c>   1</c></rc>
    <rc><c>B </c><c>   1</c></rc>
    <rc><c>B </c><c>   1</c></rc>
    <rc><c>B </c><c>   1</c></rc>
    <rc><c>C </c><c>   2</c></rc>
    <rc><c>C </c><c>   2</c></rc>
    <rc><c>C </c><c>   2</c></rc>
    <rc><c>C </c><c>   2</c></rc>
    <rc><c>C </c><c>   2</c></rc>
    <rc><c>C </c><c>   2</c></rc>
    <rc><c>C </c><c>   2</c></rc>
    <rc><c>C </c><c>   2</c></rc>
    <rc><c>C </c><c>   2</c></rc>
    <rc><c>C </c><c>   2</c></rc>
    <rc><c>C </c><c>   2</c></rc>
    <rc><c>C </c><c>   2</c></rc>
    <rc><c>C </c><c>   2</c></rc>
    <rc><c>C </c><c>   2</c></rc>
    <rc><c>C </c><c>   2</c></rc>
    <rc><c>C </c><c>   2</c></rc>
    <rc><c>C </c><c>   2</c></rc>
    <rc><c>C </c><c>   2</c></rc>
    <rc><c>C </c><c>   2</c></rc>
    <rc><c>C </c><c>   2</c></rc>
    <rc><c>C </c><c>   2</c></rc>
    <rc><c>C </c><c>   2</c></rc>
    <rc><c>C </c><c>   2</c></rc>
    <rc><c>C </c><c>   2</c></rc>
   </set>
  </array>
  <array name="atomtypes" >
   <dimension dim="1">type</dimension>
   <field type="int">atomspertype</field>
   <field type="string">element</field>
   <field>mass</field>
   <field>valence</field>
   <field type="string">pseudopotential</field>
   <set>
    <rc><c>  96</c><c>B </c><c>     10.81100000</c><c>      3.00000000</c><c>  PAW_PBE B 06Sep2000                   </c></rc>
    <rc><c>  24</c><c>C </c><c>     12.01100000</c><c>      4.00000000</c><c>  PAW_PBE C 08Apr2002                   </c></rc>
   </set>
  </array>
 </atominfo>
 <structure name="initialpos" >
  <crystal>
   <varray name="basis" >
    <v>       9.24711800       0.04954200       4.19114300 </v>
    <v>       4.13267800       8.98234100       4.28584700 </v>
    <v>      -0.03991900       0.07110500      10.40806300 </v>
   </varray>
   <i name="volume">    862.27863439 </i>
   <varray name="rec_basis" >
    <v>       0.10806719      -0.05008156       0.00075662 </v>
    <v>      -0.00025238       0.11181060      -0.00076483 </v>
    <v>      -0.04341282      -0.02587457       0.09608962 </v>
   </varray>
  </crystal>
  <varray name="positions" >
   <v>       0.15792300       0.40375800       0.40375800 </v>
   <v>       0.15792300       0.40375800       0.90375800 </v>
   <v>       0.15792300       0.90375800       0.40375800 </v>
   <v>       0.15792300       0.90375800       0.90375800 </v>
   <v>       0.65792300       0.40375800       0.40375800 </v>
   <v>       0.65792300       0.40375800       0.90375800 </v>
   <v>       0.65792300       0.90375800       0.40375800 </v>
   <v>       0.65792300       0.90375800       0.90375800 </v>
   <v>       0.40163200       0.40233800       0.15722000 </v>
   <v>       0.40163200       0.40233800       0.65722000 </v>
   <v>       0.40163200       0.90233800       0.15722000 </v>
   <v>       0.40163200       0.90233800       0.65722000 </v>
   <v>       0.90163200       0.40233800       0.15722000 </v>
   <v>       0.90163200       0.40233800       0.65722000 </v>
   <v>       0.90163200       0.90233800       0.15722000 </v>
   <v>       0.90163200       0.90233800       0.65722000 </v>
   <v>       0.40163200       0.15722000       0.40233800 </v>
   <v>       0.40163200       0.15722000       0.90233800 </v>
   <v>       0.40163200       0.65722000       0.40233800 </v>
   <v>       0.40163200       0.65722000       0.90233800 </v>
   <v>       0.90163200       0.15722000       0.40233800 </v>
   <v>       0.90163200       0.15722000       0.90233800 </v>
   <v>       0.90163200       0.65722000       0.40233800 </v>
   <v>       0.90163200       0.65722000       0.90233800 </v>
   <v>       0.34136600       0.09666500       0.09666500 </v>
   <v>       0.34136600       0.09666500       0.59666500 </v>
   <v>       0.34136600       0.59666500       0.09666500 </v>
   <v>       0.34136600       0.59666500       0.59666500 </v>
   <v>       0.84136600       0.09666500       0.09666500 </v>
   <v>       0.84136600       0.09666500       0.59666500 </v>
   <v>       0.84136600       0.59666500       0.09666500 </v>
   <v>       0.84136600       0.59666500       0.59666500 </v>
   <v>       0.09870000       0.09683600       0.34371100 </v>
   <v>       0.09870000       0.09683600       0.84371100 </v>
   <v>       0.09870000       0.59683600       0.34371100 </v>
   <v>       0.09870000       0.59683600       0.84371100 </v>
   <v>       0.59870000       0.09683600       0.34371100 </v>
   <v>       0.59870000       0.09683600       0.84371100 </v>
   <v>       0.59870000       0.59683600       0.34371100 </v>
   <v>       0.59870000       0.59683600       0.84371100 </v>
   <v>       0.09870000       0.34371100       0.09683600 </v>
   <v>       0.09870000       0.34371100       0.59683600 </v>
   <v>       0.09870000       0.84371100       0.09683600 </v>
   <v>       0.09870000       0.84371100       0.59683600 </v>
   <v>       0.59870000       0.34371100       0.09683600 </v>
   <v>       0.59870000       0.34371100       0.59683600 </v>
   <v>       0.59870000       0.84371100       0.09683600 </v>
   <v>       0.59870000       0.84371100       0.59683600 </v>
   <v>       0.49444700       0.49739900       0.33679800 </v>
   <v>       0.49444700       0.49739900       0.83679800 </v>
   <v>       0.49444700       0.99739900       0.33679800 </v>
   <v>       0.49444700       0.99739900       0.83679800 </v>
   <v>       0.99444700       0.49739900       0.33679800 </v>
   <v>       0.99444700       0.49739900       0.83679800 </v>
   <v>       0.99444700       0.99739900       0.33679800 </v>
   <v>       0.99444700       0.99739900       0.83679800 </v>
   <v>       0.49444700       0.33679800       0.49739900 </v>
   <v>       0.49444700       0.33679800       0.99739900 </v>
   <v>       0.49444700       0.83679800       0.49739900 </v>
   <v>       0.49444700       0.83679800       0.99739900 </v>
   <v>       0.99444700       0.33679800       0.49739900 </v>
   <v>       0.99444700       0.33679800       0.99739900 </v>
   <v>       0.99444700       0.83679800       0.49739900 </v>
   <v>       0.99444700       0.83679800       0.99739900 </v>
   <v>       0.17079500       0.00295000       0.00295000 </v>
   <v>       0.17079500       0.00295000       0.50295000 </v>
   <v>       0.17079500       0.50295000       0.00295000 </v>
   <v>       0.17079500       0.50295000       0.50295000 </v>
   <v>       0.67079500       0.00295000       0.00295000 </v>
   <v>       0.67079500       0.00295000       0.50295000 </v>
   <v>       0.67079500       0.50295000       0.00295000 </v>
   <v>       0.67079500       0.50295000       0.50295000 </v>
   <v>       0.00347500       0.00275500       0.16436200 </v>
   <v>       0.00347500       0.00275500       0.66436200 </v>
   <v>       0.00347500       0.50275500       0.16436200 </v>
   <v>       0.00347500       0.50275500       0.66436200 </v>
   <v>       0.50347500       0.00275500       0.16436200 </v>
   <v>       0.50347500       0.00275500       0.66436200 </v>
   <v>       0.50347500       0.50275500       0.16436200 </v>
   <v>       0.50347500       0.50275500       0.66436200 </v>
   <v>       0.00347500       0.16436200       0.00275500 </v>
   <v>       0.00347500       0.16436200       0.50275500 </v>
   <v>       0.00347500       0.66436200       0.00275500 </v>
   <v>       0.00347500       0.66436200       0.50275500 </v>
   <v>       0.50347500       0.16436200       0.00275500 </v>
   <v>       0.50347500       0.16436200       0.50275500 </v>
   <v>       0.50347500       0.66436200       0.00275500 </v>
   <v>       0.50347500       0.66436200       0.50275500 </v>
   <v>       0.24799500       0.24900900       0.24900900 </v>
   <v>       0.24799500       0.24900900       0.74900900 </v>
   <v>       0.24799500       0.74900900       0.24900900 </v>
   <v>       0.24799500       0.74900900       0.74900900 </v>
   <v>       0.74799500       0.24900900       0.24900900 </v>
   <v>       0.74799500       0.24900900       0.74900900 </v>
   <v>       0.74799500       0.74900900       0.24900900 </v>
   <v>       0.74799500       0.74900900       0.74900900 </v>
   <v>       0.33833600       0.49792800       0.49792800 </v>
   <v>       0.33833600       0.49792800       0.99792800 </v>
   <v>       0.33833600       0.99792800       0.49792800 </v>
   <v>       0.33833600       0.99792800       0.99792800 </v>
   <v>       0.83833600       0.49792800       0.49792800 </v>
   <v>       0.83833600       0.49792800       0.99792800 </v>
   <v>       0.83833600       0.99792800       0.49792800 </v>
   <v>       0.83833600       0.99792800       0.99792800 </v>
   <v>       0.30608800       0.30943700       0.30943700 </v>
   <v>       0.30608800       0.30943700       0.80943700 </v>
   <v>       0.30608800       0.80943700       0.30943700 </v>
   <v>       0.30608800       0.80943700       0.80943700 </v>
   <v>       0.80608800       0.30943700       0.30943700 </v>
   <v>       0.80608800       0.30943700       0.80943700 </v>
   <v>       0.80608800       0.80943700       0.30943700 </v>
   <v>       0.80608800       0.80943700       0.80943700 </v>
   <v>       0.19098900       0.18883500       0.18883500 </v>
   <v>       0.19098900       0.18883500       0.68883500 </v>
   <v>       0.19098900       0.68883500       0.18883500 </v>
   <v>       0.19098900       0.68883500       0.68883500 </v>
   <v>       0.69098900       0.18883500       0.18883500 </v>
   <v>       0.69098900       0.18883500       0.68883500 </v>
   <v>       0.69098900       0.68883500       0.18883500 </v>
   <v>       0.69098900       0.68883500       0.68883500 </v>
  </varray>
 </structure>
 <calculation>
  <scstep>
   <time name="dav">    6.95    6.95</time>
   <time name="total">    7.26    7.26</time>
   <energy>
    <i name="alphaZ">   1199.86758843 </i>
    <i name="ewald"> -11641.98404138 </i>
    <i name="hartreedc">  -1088.96890594 </i>
    <i name="XCdc">   1019.28308403 </i>
    <i name="pawpsdc">   6780.51620165 </i>
    <i name="pawaedc">  -6712.07122612 </i>
    <i name="eentropy">      0.00000000 </i>
    <i name="bandstr">   1633.59474666 </i>
    <i name="atom">  10363.97701633 </i>
    <i name="e_fr_energy">   1554.21446366 </i>
    <i name="e_wo_entrp">   1554.21446366 </i>
    <i name="e_0_energy">   1554.21446366 </i>
   </energy>
  </scstep>
  <scstep>
   <time name="dav">    7.94    7.95</time>
   <time name="total">    7.96    7.97</time>
   <energy>
    <i name="e_fr_energy">   -761.18433921 </i>
    <i name="e_wo_entrp">   -761.18433921 </i>
    <i name="e_0_energy">   -761.18433921 </i>
   </energy>
  </scstep>
  <scstep>
   <time name="dav">    7.98    7.99</time>
   <time name="total">    8.00    8.02</time>
   <energy>
    <i name="e_fr_energy">   -913.87691626 </i>
    <i name="e_wo_entrp">   -913.87691626 </i>
    <i name="e_0_energy">   -913.87691626 </i>
   </energy>
  </scstep>
  <scstep>
   <time name="dav">    7.89    7.91</time>
   <time name="total">    7.92    7.94</time>
   <energy>
    <i name="e_fr_energy">   -917.62586039 </i>
    <i name="e_wo_entrp">   -917.62586039 </i>
    <i name="e_0_energy">   -917.62586039 </i>
   </energy>
  </scstep>
  <scstep>
   <time name="dav">    7.85    7.89</time>
   <time name="total">    9.63    9.67</time>
   <energy>
    <i name="e_fr_energy">   -917.73518731 </i>
    <i name="e_wo_entrp">   -917.73518731 </i>
    <i name="e_0_energy">   -917.73518731 </i>
   </energy>
  </scstep>
  <scstep>
   <time name="diag">    1.49    1.49</time>
   <time name="diis">    6.23    6.18</time>
   <time name="orth">    0.04    0.04</time>
   <time name="total">    9.76    9.71</time>
   <energy>
    <i name="e_fr_energy">   -866.22755700 </i>
    <i name="e_wo_entrp">   -866.22755700 </i>
    <i name="e_0_energy">   -866.22755700 </i>
   </energy>
  </scstep>
  <scstep>
   <time name="diag">    1.47    1.47</time>
   <time name="diis">    6.24    6.16</time>
   <time name="orth">    0.04    0.04</time>
   <time name="total">    9.73    9.65</time>
   <energy>
    <i name="e_fr_energy">   -858.27596057 </i>
    <i name="e_wo_entrp">   -858.27596057 </i>
    <i name="e_0_energy">   -858.27596057 </i>
   </energy>
  </scstep>
  <scstep>
   <time name="diag">    1.47    1.47</time>
   <time name="diis">    6.22    6.14</time>
   <time name="orth">    0.04    0.04</time>
   <time name="total">    9.73    9.65</time>
   <energy>
    <i name="e_fr_energy">   -857.96456815 </i>
    <i name="e_wo_entrp">   -857.96456815 </i>
    <i name="e_0_energy">   -857.96456815 </i>
   </energy>
  </scstep>
  <scstep>
   <time name="diag">    1.48    1.48</time>
   <time name="diis">    6.22    6.17</time>
   <time name="orth">    0.04    0.04</time>
   <time name="total">    9.73    9.67</time>
   <energy>
    <i name="e_fr_energy">   -857.35384872 </i>
    <i name="e_wo_entrp">   -857.35384872 </i>
    <i name="e_0_energy">   -857.35384872 </i>
   </energy>
  </scstep>
  <scstep>
   <time name="diag">    1.48    1.48</time>
   <time name="diis">    6.45    6.39</time>
   <time name="orth">    0.04    0.04</time>
   <time name="total">    9.98    9.92</time>
   <energy>
    <i name="e_fr_energy">   -857.36795469 </i>
    <i name="e_wo_entrp">   -857.36795469 </i>
    <i name="e_0_energy">   -857.36795469 </i>
   </energy>
  </scstep>
  <scstep>
   <time name="diag">    1.47    1.47</time>
   <time name="diis">    6.22    6.15</time>
   <time name="orth">    0.04    0.04</time>
   <time name="total">    9.73    9.66</time>
   <energy>
    <i name="e_fr_energy">   -857.34949998 </i>
    <i name="e_wo_entrp">   -857.34949998 </i>
    <i name="e_0_energy">   -857.34949998 </i>
   </energy>
  </scstep>
  <scstep>
   <time name="diag">    1.47    1.47</time>
   <time name="diis">    6.30    6.22</time>
   <time name="orth">    0.04    0.04</time>
   <time name="total">    9.81    9.73</time>
   <energy>
    <i name="e_fr_energy">   -857.35141934 </i>
    <i name="e_wo_entrp">   -857.35141934 </i>
    <i name="e_0_energy">   -857.35141934 </i>
   </energy>
  </scstep>
  <scstep>
   <time name="diag">    1.49    1.49</time>
   <time name="diis">    6.49    6.41</time>
   <time name="orth">    0.04    0.04</time>
   <time name="total">   10.03    9.96</time>
   <energy>
    <i name="e_fr_energy">   -857.35097609 </i>
    <i name="e_wo_entrp">   -857.35097609 </i>
    <i name="e_0_energy">   -857.35097609 </i>
   </energy>
  </scstep>
  <scstep>
   <time name="diag">    1.48    1.48</time>
   <time name="diis">    6.29    6.20</time>
   <time name="orth">    0.04    0.04</time>
   <time name="total">    9.82    9.75</time>
   <energy>
    <i name="e_fr_energy">   -857.35101599 </i>
    <i name="e_wo_entrp">   -857.35101599 </i>
    <i name="e_0_energy">   -857.35101599 </i>
   </energy>
  </scstep>
  <scstep>
   <time name="diag">    1.47    1.47</time>
   <time name="diis">    6.53    6.46</time>
   <time name="orth">    0.04    0.04</time>
   <time name="total">   10.05    9.98</time>
   <energy>
    <i name="e_fr_energy">   -857.35102745 </i>
    <i name="e_wo_entrp">   -857.35102745 </i>
    <i name="e_0_energy">   -857.35102745 </i>
   </energy>
  </scstep>
  <scstep>
   <time name="diag">    1.47    1.47</time>
   <time name="diis">    6.58    6.49</time>
   <time name="orth">    0.04    0.04</time>
   <time name="total">   10.10   10.01</time>
   <energy>
    <i name="e_fr_energy">   -857.35102884 </i>
    <i name="e_wo_entrp">   -857.35102884 </i>
    <i name="e_0_energy">   -857.35102884 </i>
   </energy>
  </scstep>
  <scstep>
   <time name="diag">    1.48    1.48</time>
   <time name="diis">    6.11    6.06</time>
   <time name="orth">    0.04    0.04</time>
   <time name="total">    7.92    7.88</time>
   <energy>
    <i name="alphaZ">   1199.86758843 </i>
    <i name="ewald"> -11641.98404138 </i>
    <i name="hartreedc">  -1557.52815260 </i>
    <i name="XCdc">   1053.23563100 </i>
    <i name="pawpsdc">  36652.14667169 </i>
    <i name="pawaedc"> -36594.59695993 </i>
    <i name="eentropy">      0.00000000 </i>
    <i name="bandstr">   -332.46878253 </i>
    <i name="atom">  10363.97701633 </i>
    <i name="e_fr_energy">   -857.35102900 </i>
    <i name="e_wo_entrp">   -857.35102900 </i>
    <i name="e_0_energy">   -857.35102900 </i>
   </energy>
  </scstep>
  <structure>
   <crystal>
    <varray name="basis" >
     <v>       9.24711800       0.04954200       4.19114300 </v>
     <v>       4.13267800       8.98234100       4.28584700 </v>
     <v>      -0.03991900       0.07110500      10.40806300 </v>
    </varray>
    <i name="volume">    862.27863439 </i>
    <varray name="rec_basis" >
     <v>       0.10806719      -0.05008156       0.00075662 </v>
     <v>      -0.00025238       0.11181060      -0.00076483 </v>
     <v>      -0.04341282      -0.02587457       0.09608962 </v>
    </varray>
   </crystal>
   <varray name="positions" >
    <v>       0.15792300       0.40375800       0.40375800 </v>
    <v>       0.15792300       0.40375800       0.90375800 </v>
    <v>       0.15792300       0.90375800       0.40375800 </v>
    <v>       0.15792300       0.90375800       0.90375800 </v>
    <v>       0.65792300       0.40375800       0.40375800 </v>
    <v>       0.65792300       0.40375800       0.90375800 </v>
    <v>       0.65792300       0.90375800       0.40375800 </v>
    <v>       0.65792300       0.90375800       0.90375800 </v>
    <v>       0.40163200       0.40233800       0.15722000 </v>
    <v>       0.40163200       0.40233800       0.65722000 </v>
    <v>       0.40163200       0.90233800       0.15722000 </v>
    <v>       0.40163200       0.90233800       0.65722000 </v>
    <v>       0.90163200       0.40233800       0.15722000 </v>
    <v>       0.90163200       0.40233800       0.65722000 </v>
    <v>       0.90163200       0.90233800       0.15722000 </v>
    <v>       0.90163200       0.90233800       0.65722000 </v>
    <v>       0.40163200       0.15722000       0.40233800 </v>
    <v>       0.40163200       0.15722000       0.90233800 </v>
    <v>       0.40163200       0.65722000       0.40233800 </v>
    <v>       0.40163200       0.65722000       0.90233800 </v>
    <v>       0.90163200       0.15722000       0.40233800 </v>
    <v>       0.90163200       0.15722000       0.90233800 </v>
    <v>       0.90163200       0.65722000       0.40233800 </v>
    <v>       0.90163200       0.65722000       0.90233800 </v>
    <v>       0.34136600       0.09666500       0.09666500 </v>
    <v>       0.34136600       0.09666500       0.59666500 </v>
    <v>       0.34136600       0.59666500       0.09666500 </v>
    <v>       0.34136600       0.59666500       0.59666500 </v>
    <v>       0.84136600       0.09666500       0.09666500 </v>
    <v>       0.84136600       0.09666500       0.59666500 </v>
    <v>       0.84136600       0.59666500       0.09666500 </v>
    <v>       0.84136600       0.59666500       0.59666500 </v>
    <v>       0.09870000       0.09683600       0.34371100 </v>
    <v>       0.09870000       0.09683600       0.84371100 </v>
    <v>       0.09870000       0.59683600       0.34371100 </v>
    <v>       0.09870000       0.59683600       0.84371100 </v>
    <v>       0.59870000       0.09683600       0.34371100 </v>
    <v>       0.59870000       0.09683600       0.84371100 </v>
    <v>       0.59870000       0.59683600       0.34371100 </v>
    <v>       0.59870000       0.59683600       0.84371100 </v>
    <v>       0.09870000       0.34371100       0.09683600 </v>
    <v>       0.09870000       0.34371100       0.59683600 </v>
    <v>       0.09870000       0.84371100       0.09683600 </v>
    <v>       0.09870000       0.84371100       0.59683600 </v>
    <v>       0.59870000       0.34371100       0.09683600 </v>
    <v>       0.59870000       0.34371100       0.59683600 </v>
    <v>       0.59870000       0.84371100       0.09683600 </v>
    <v>       0.59870000       0.84371100       0.59683600 </v>
    <v>       0.49444700       0.49739900       0.33679800 </v>
    <v>       0.49444700       0.49739900       0.83679800 </v>
    <v>       0.49444700       0.99739900       0.33679800 </v>
    <v>       0.49444700       0.99739900       0.83679800 </v>
    <v>       0.99444700       0.49739900       0.33679800 </v>
    <v>       0.99444700       0.49739900       0.83679800 </v>
    <v>       0.99444700       0.99739900       0.33679800 </v>
    <v>       0.99444700       0.99739900       0.83679800 </v>
    <v>       0.49444700       0.33679800       0.49739900 </v>
    <v>       0.49444700       0.33679800       0.99739900 </v>
    <v>       0.49444700       0.83679800       0.49739900 </v>
    <v>       0.49444700       0.83679800       0.99739900 </v>
    <v>       0.99444700       0.33679800       0.49739900 </v>
    <v>       0.99444700       0.33679800       0.99739900 </v>
    <v>       0.99444700       0.83679800       0.49739900 </v>
    <v>       0.99444700       0.83679800       0.99739900 </v>
    <v>       0.17079500       0.00295000       0.00295000 </v>
    <v>       0.17079500       0.00295000       0.50295000 </v>
    <v>       0.17079500       0.50295000       0.00295000 </v>
    <v>       0.17079500       0.50295000       0.50295000 </v>
    <v>       0.67079500       0.00295000       0.00295000 </v>
    <v>       0.67079500       0.00295000       0.50295000 </v>
    <v>       0.67079500       0.50295000       0.00295000 </v>
    <v>       0.67079500       0.50295000       0.50295000 </v>
    <v>       0.00347500       0.00275500       0.16436200 </v>
    <v>       0.00347500       0.00275500       0.66436200 </v>
    <v>       0.00347500       0.50275500       0.16436200 </v>
    <v>       0.00347500       0.50275500       0.66436200 </v>
    <v>       0.50347500       0.00275500       0.16436200 </v>
    <v>       0.50347500       0.00275500       0.66436200 </v>
    <v>       0.50347500       0.50275500       0.16436200 </v>
    <v>       0.50347500       0.50275500       0.66436200 </v>
    <v>       0.00347500       0.16436200       0.00275500 </v>
    <v>       0.00347500       0.16436200       0.50275500 </v>
    <v>       0.00347500       0.66436200       0.00275500 </v>
    <v>       0.00347500       0.66436200       0.50275500 </v>
    <v>       0.50347500       0.16436200       0.00275500 </v>
    <v>       0.50347500       0.16436200       0.50275500 </v>
    <v>       0.50347500       0.66436200       0.00275500 </v>
    <v>       0.50347500       0.66436200       0.50275500 </v>
    <v>       0.24799500       0.24900900       0.24900900 </v>
    <v>       0.24799500       0.24900900       0.74900900 </v>
    <v>       0.24799500       0.74900900       0.24900900 </v>
    <v>       0.24799500       0.74900900       0.74900900 </v>
    <v>       0.74799500       0.24900900       0.24900900 </v>
    <v>       0.74799500       0.24900900       0.74900900 </v>
    <v>       0.74799500       0.74900900       0.24900900 </v>
    <v>       0.74799500       0.74900900       0.74900900 </v>
    <v>       0.33833600       0.49792800       0.49792800 </v>
    <v>       0.33833600       0.49792800       0.99792800 </v>
    <v>       0.33833600       0.99792800       0.49792800 </v>
    <v>       0.33833600       0.99792800       0.99792800 </v>
    <v>       0.83833600       0.49792800       0.49792800 </v>
    <v>       0.83833600       0.49792800       0.99792800 </v>
    <v>       0.83833600       0.99792800       0.49792800 </v>
    <v>       0.83833600       0.99792800       0.99792800 </v>
    <v>       0.30608800       0.30943700       0.30943700 </v>
    <v>       0.30608800       0.30943700       0.80943700 </v>
    <v>       0.30608800       0.80943700       0.30943700 </v>
    <v>       0.30608800       0.80943700       0.80943700 </v>
    <v>       0.80608800       0.30943700       0.30943700 </v>
    <v>       0.80608800       0.30943700       0.80943700 </v>
    <v>       0.80608800       0.80943700       0.30943700 </v>
    <v>       0.80608800       0.80943700       0.80943700 </v>
    <v>       0.19098900       0.18883500       0.18883500 </v>
    <v>       0.19098900       0.18883500       0.68883500 </v>
    <v>       0.19098900       0.68883500       0.18883500 </v>
    <v>       0.19098900       0.68883500       0.68883500 </v>
    <v>       0.69098900       0.18883500       0.18883500 </v>
    <v>       0.69098900       0.18883500       0.68883500 </v>
    <v>       0.69098900       0.68883500       0.18883500 </v>
    <v>       0.69098900       0.68883500       0.68883500 </v>
   </varray>
  </structure>
  <varray name="forces" >
   <v>      -0.25029780      -0.13014040       0.95499040 </v>
   <v>      -0.25029780      -0.13014040       0.95499040 </v>
   <v>      -0.25029780      -0.13014040       0.95499040 </v>
   <v>      -0.25029780      -0.13014040       0.95499040 </v>
   <v>      -0.25029780      -0.13014040       0.95499040 </v>
   <v>      -0.25029780      -0.13014040       0.95499040 </v>
   <v>      -0.25029780      -0.13014040       0.95499040 </v>
   <v>      -0.25029780      -0.13014040       0.95499040 </v>
   <v>      -0.54879867       0.24252245       0.57844660 </v>
   <v>      -0.54879867       0.24252245       0.57844660 </v>
   <v>      -0.54879867       0.24252245       0.57844660 </v>
   <v>      -0.54879867       0.24252245       0.57844660 </v>
   <v>      -0.54879867       0.24252245       0.57844660 </v>
   <v>      -0.54879867       0.24252245       0.57844660 </v>
   <v>      -0.54879867       0.24252245       0.57844660 </v>
   <v>      -0.54879867       0.24252245       0.57844660 </v>
   <v>      -0.84312594       0.41495324       0.31525520 </v>
   <v>      -0.84312594       0.41495324       0.31525520 </v>
   <v>      -0.84312594       0.41495324       0.31525520 </v>
   <v>      -0.84312594       0.41495324       0.31525520 </v>
   <v>      -0.84312594       0.41495324       0.31525520 </v>
   <v>      -0.84312594       0.41495324       0.31525520 </v>
   <v>      -0.84312594       0.41495324       0.31525520 </v>
   <v>      -0.84312594       0.41495324       0.31525520 </v>
   <v>       0.33606821       0.01589035      -1.04467662 </v>
   <v>       0.33606821       0.01589035      -1.04467662 </v>
   <v>       0.33606821       0.01589035      -1.04467662 </v>
   <v>       0.33606821       0.01589035      -1.04467662 </v>
   <v>       0.33606821       0.01589035      -1.04467662 </v>
   <v>       0.33606821       0.01589035      -1.04467662 </v>
   <v>       0.33606821       0.01589035      -1.04467662 </v>
   <v>       0.33606821       0.01589035      -1.04467662 </v>
   <v>       0.54117932      -0.40383916      -0.55314825 </v>
   <v>       0.54117932      -0.40383916      -0.55314825 </v>
   <v>       0.54117932      -0.40383916      -0.55314825 </v>
   <v>       0.54117932      -0.40383916      -0.55314825 </v>
   <v>       0.54117932      -0.40383916      -0.55314825 </v>
   <v>       0.54117932      -0.40383916      -0.55314825 </v>
   <v>       0.54117932      -0.40383916      -0.55314825 </v>
   <v>       0.54117932      -0.40383916      -0.55314825 </v>
   <v>       1.11918187      -0.13784488      -0.28783736 </v>
   <v>       1.11918187      -0.13784488      -0.28783736 </v>
   <v>       1.11918187      -0.13784488      -0.28783736 </v>
   <v>       1.11918187      -0.13784488      -0.28783736 </v>
   <v>       1.11918187      -0.13784488      -0.28783736 </v>
   <v>       1.11918187      -0.13784488      -0.28783736 </v>
   <v>       1.11918187      -0.13784488      -0.28783736 </v>
   <v>       1.11918187      -0.13784488      -0.28783736 </v>
   <v>      -0.29327309       0.08218740      -0.02531586 </v>
   <v>      -0.29327309       0.08218740      -0.02531586 </v>
   <v>      -0.29327309       0.08218740      -0.02531586 </v>
   <v>      -0.29327309       0.08218740      -0.02531586 </v>
   <v>      -0.29327309       0.08218740      -0.02531586 </v>
   <v>      -0.29327309       0.08218740      -0.02531586 </v>
   <v>      -0.29327309       0.08218740      -0.02531586 </v>
   <v>      -0.29327309       0.08218740      -0.02531586 </v>
   <v>       0.91213374      -0.14709328      -0.15890909 </v>
   <v>       0.91213374      -0.14709328      -0.15890909 </v>
   <v>       0.91213374      -0.14709328      -0.15890909 </v>
   <v>       0.91213374      -0.14709328      -0.15890909 </v>
   <v>       0.91213374      -0.14709328      -0.15890909 </v>
   <v>       0.91213374      -0.14709328      -0.15890909 </v>
   <v>       0.91213374      -0.14709328      -0.15890909 </v>
   <v>       0.91213374      -0.14709328      -0.15890909 </v>
   <v>       0.28644518      -1.03362998       0.05084347 </v>
   <v>       0.28644518      -1.03362998       0.05084347 </v>
   <v>       0.28644518      -1.03362998       0.05084347 </v>
   <v>       0.28644518      -1.03362998       0.05084347 </v>
   <v>       0.28644518      -1.03362998       0.05084347 </v>
   <v>       0.28644518      -1.03362998       0.05084347 </v>
   <v>       0.28644518      -1.03362998       0.05084347 </v>
   <v>       0.28644518      -1.03362998       0.05084347 </v>
   <v>       0.35061843      -0.23561562       0.17212209 </v>
   <v>       0.35061843      -0.23561562       0.17212209 </v>
   <v>       0.35061843      -0.23561562       0.17212209 </v>
   <v>       0.35061843      -0.23561562       0.17212209 </v>
   <v>       0.35061843      -0.23561562       0.17212209 </v>
   <v>       0.35061843      -0.23561562       0.17212209 </v>
   <v>       0.35061843      -0.23561562       0.17212209 </v>
   <v>       0.35061843      -0.23561562       0.17212209 </v>
   <v>      -1.11094195       0.52922106       0.18316774 </v>
   <v>      -1.11094195       0.52922106       0.18316774 </v>
   <v>      -1.11094195       0.52922106       0.18316774 </v>
   <v>      -1.11094195       0.52922106       0.18316774 </v>
   <v>      -1.11094195       0.52922106       0.18316774 </v>
   <v>      -1.11094195       0.52922106       0.18316774 </v>
   <v>      -1.11094195       0.52922106       0.18316774 </v>
   <v>      -1.11094195       0.52922106       0.18316774 </v>
   <v>       0.16281715       0.22972679       0.04189572 </v>
   <v>       0.16281715       0.22972679       0.04189572 </v>
   <v>       0.16281715       0.22972679       0.04189572 </v>
   <v>       0.16281715       0.22972679       0.04189572 </v>
   <v>       0.16281715       0.22972679       0.04189572 </v>
   <v>       0.16281715       0.22972679       0.04189572 </v>
   <v>       0.16281715       0.22972679       0.04189572 </v>
   <v>       0.16281715       0.22972679       0.04189572 </v>
   <v>      -0.30154686       0.87198904       0.05881464 </v>
   <v>      -0.30154686       0.87198904       0.05881464 </v>
   <v>      -0.30154686       0.87198904       0.05881464 </v>
   <v>      -0.30154686       0.87198904       0.05881464 </v>
   <v>      -0.30154686       0.87198904       0.05881464 </v>
   <v>      -0.30154686       0.87198904       0.05881464 </v>
   <v>      -0.30154686       0.87198904       0.05881464 </v>
   <v>      -0.30154686       0.87198904       0.05881464 </v>
   <v>       1.35255296      -0.04293337      -2.96251421 </v>
   <v>       1.35255296      -0.04293337      -2.96251421 </v>
   <v>       1.35255296      -0.04293337      -2.96251421 </v>
   <v>       1.35255296      -0.04293337      -2.96251421 </v>
   <v>       1.35255296      -0.04293337      -2.96251421 </v>
   <v>       1.35255296      -0.04293337      -2.96251421 </v>
   <v>       1.35255296      -0.04293337      -2.96251421 </v>
   <v>       1.35255296      -0.04293337      -2.96251421 </v>
   <v>      -1.71301255      -0.25539365       2.67686553 </v>
   <v>      -1.71301255      -0.25539365       2.67686553 </v>
   <v>      -1.71301255      -0.25539365       2.67686553 </v>
   <v>      -1.71301255      -0.25539365       2.67686553 </v>
   <v>      -1.71301255      -0.25539365       2.67686553 </v>
   <v>      -1.71301255      -0.25539365       2.67686553 </v>
   <v>      -1.71301255      -0.25539365       2.67686553 </v>
   <v>      -1.71301255      -0.25539365       2.67686553 </v>
  </varray>
  <varray name="stress" >
   <v>      24.19290299    -440.93070218     -14.30908666 </v>
   <v>    -440.93070220     181.61368592      13.65584171 </v>
   <v>     -14.30908659      13.65584175     -21.16355574 </v>
  </varray>
  <energy>
   <i name="e_fr_energy">   -857.35102900 </i>
   <i name="e_wo_entrp">   -857.35102900 </i>
   <i name="e_0_energy">   -857.35102900 </i>
  </energy>
  <time name="totalsc">  180.41  179.92</time>
 </calculation>
 <calculation>
  <scstep>
   <time name="dav">    7.38    7.38</time>
   <time name="total">    9.39    9.39</time>
   <energy>
    <i name="alphaZ">   1199.86758843 </i>
    <i name="ewald"> -11597.05702217 </i>
    <i name="hartreedc">  -1515.22766795 </i>
    <i name="XCdc">   1052.93562552 </i>
    <i name="pawpsdc">  36652.09227243 </i>
    <i name="pawaedc"> -36594.54254344 </i>
    <i name="eentropy">      0.00000000 </i>
    <i name="bandstr">   -443.55784834 </i>
    <i name="atom">  10363.97701633 </i>
    <i name="e_fr_energy">   -881.51257918 </i>
    <i name="e_wo_entrp">   -881.51257918 </i>
    <i name="e_0_energy">   -881.51257918 </i>
   </energy>
  </scstep>
  <scstep>
   <time name="diag">    1.50    1.50</time>
   <time name="diis">    6.24    6.15</time>
   <time name="orth">    0.04    0.04</time>
   <time name="total">    9.77    9.68</time>
   <energy>
    <i name="e_fr_energy">   -869.01618120 </i>
    <i name="e_wo_entrp">   -869.01618120 </i>
    <i name="e_0_energy">   -869.01618120 </i>
   </energy>
  </scstep>
  <scstep>
   <time name="diag">    1.49    1.49</time>
   <time name="diis">    6.22    6.15</time>
   <time name="orth">    0.04    0.04</time>
   <time name="total">    9.74    9.68</time>
   <energy>
    <i name="e_fr_energy">   -862.99993020 </i>
    <i name="e_wo_entrp">   -862.99993020 </i>
    <i name="e_0_energy">   -862.99993020 </i>
   </energy>
  </scstep>
  <scstep>
   <time name="diag">    1.48    1.48</time>
   <time name="diis">    6.24    6.17</time>
   <time name="orth">    0.04    0.04</time>
   <time name="total">    9.76    9.69</time>
   <energy>
    <i name="e_fr_energy">   -862.18866086 </i>
    <i name="e_wo_entrp">   -862.18866086 </i>
    <i name="e_0_energy">   -862.18866086 </i>
   </energy>
  </scstep>
  <scstep>
   <time name="diag">    1.49    1.49</time>
   <time name="diis">    6.39    6.32</time>
   <time name="orth">    0.04    0.04</time>
   <time name="total">    9.91    9.83</time>
   <energy>
    <i name="e_fr_energy">   -862.20961728 </i>
    <i name="e_wo_entrp">   -862.20961728 </i>
    <i name="e_0_energy">   -862.20961728 </i>
   </energy>
  </scstep>
  <scstep>
   <time name="diag">    1.48    1.48</time>
   <time name="diis">    6.38    6.30</time>
   <time name="orth">    0.04    0.04</time>
   <time name="total">    9.93    9.85</time>
   <energy>
    <i name="e_fr_energy">   -862.21904139 </i>
    <i name="e_wo_entrp">   -862.21904139 </i>
    <i name="e_0_energy">   -862.21904139 </i>
   </energy>
  </scstep>
  <scstep>
   <time name="diag">    1.48    1.48</time>
   <time name="diis">    6.39    6.31</time>
   <time name="orth">    0.04    0.04</time>
   <time name="total">    9.93    9.85</time>
   <energy>
    <i name="e_fr_energy">   -862.22092566 </i>
    <i name="e_wo_entrp">   -862.22092566 </i>
    <i name="e_0_energy">   -862.22092566 </i>
   </energy>
  </scstep>
  <scstep>
   <time name="diag">    1.49    1.49</time>
   <time name="diis">    6.62    6.57</time>
   <time name="orth">    0.04    0.04</time>
   <time name="total">   10.15   10.10</time>
   <energy>
    <i name="e_fr_energy">   -862.22162442 </i>
    <i name="e_wo_entrp">   -862.22162442 </i>
    <i name="e_0_energy">   -862.22162442 </i>
   </energy>
  </scstep>
  <scstep>
   <time name="diag">    1.47    1.47</time>
   <time name="diis">    6.47    6.40</time>
   <time name="orth">    0.04    0.04</time>
   <time name="total">   10.00    9.93</time>
   <energy>
    <i name="e_fr_energy">   -862.22174309 </i>
    <i name="e_wo_entrp">   -862.22174309 </i>
    <i name="e_0_energy">   -862.22174309 </i>
   </energy>
  </scstep>
  <scstep>
   <time name="diag">    1.48    1.48</time>
   <time name="diis">    6.47    6.41</time>
   <time name="orth">    0.04    0.04</time>
   <time name="total">   10.00    9.96</time>
   <energy>
    <i name="e_fr_energy">   -862.22176701 </i>
    <i name="e_wo_entrp">   -862.22176701 </i>
    <i name="e_0_energy">   -862.22176701 </i>
   </energy>
  </scstep>
  <scstep>
   <time name="diag">    1.49    1.49</time>
   <time name="diis">    6.26    6.18</time>
   <time name="orth">    0.04    0.04</time>
   <time name="total">    9.78    9.71</time>
   <energy>
    <i name="e_fr_energy">   -862.22177250 </i>
    <i name="e_wo_entrp">   -862.22177250 </i>
    <i name="e_0_energy">   -862.22177250 </i>
   </energy>
  </scstep>
  <scstep>
   <time name="diag">    1.48    1.48</time>
   <time name="diis">    5.84    5.78</time>
   <time name="orth">    0.04    0.04</time>
   <time name="total">    9.38    9.32</time>
   <energy>
    <i name="e_fr_energy">   -862.22177414 </i>
    <i name="e_wo_entrp">   -862.22177414 </i>
    <i name="e_0_energy">   -862.22177414 </i>
   </energy>
  </scstep>
  <scstep>
   <time name="diag">    1.48    1.48</time>
   <time name="diis">    4.97    4.95</time>
   <time name="orth">    0.04    0.04</time>
   <time name="total">    6.78    6.75</time>
   <energy>
    <i name="alphaZ">   1199.86758843 </i>
    <i name="ewald"> -11597.05702217 </i>
    <i name="hartreedc">  -1559.84731579 </i>
    <i name="XCdc">   1056.06000299 </i>
    <i name="pawpsdc">  38070.77090700 </i>
    <i name="pawaedc"> -38013.94559208 </i>
    <i name="eentropy">      0.00000000 </i>
    <i name="bandstr">   -382.04735930 </i>
    <i name="atom">  10363.97701633 </i>
    <i name="e_fr_energy">   -862.22177459 </i>
    <i name="e_wo_entrp">   -862.22177459 </i>
    <i name="e_0_energy">   -862.22177459 </i>
   </energy>
  </scstep>
  <structure>
   <crystal>
    <varray name="basis" >
     <v>       9.18379696      -0.82158587       4.10065833 </v>
     <v>       3.23934556       8.86218154       4.23632517 </v>
     <v>      -0.07885315       0.10785464      10.25464997 </v>
    </varray>
    <i name="volume">    862.27863439 </i>
    <varray name="rec_basis" >
     <v>       0.10486362      -0.03891132       0.00121560 </v>
     <v>       0.01028363       0.10959331      -0.00107359 </v>
     <v>      -0.04618146      -0.02971441       0.09747415 </v>
    </varray>
   </crystal>
   <varray name="positions" >
    <v>       0.15696737       0.40302383       0.40887163 </v>
    <v>       0.15696737       0.40302383       0.90887163 </v>
    <v>       0.15696737       0.90302383       0.40887163 </v>
    <v>       0.15696737       0.90302383       0.90887163 </v>
    <v>       0.65696737       0.40302383       0.40887163 </v>
    <v>       0.65696737       0.40302383       0.90887163 </v>
    <v>       0.65696737       0.90302383       0.40887163 </v>
    <v>       0.65696737       0.90302383       0.90887163 </v>
    <v>       0.39820603       0.40363151       0.16074810 </v>
    <v>       0.39820603       0.40363151       0.66074810 </v>
    <v>       0.39820603       0.90363151       0.16074810 </v>
    <v>       0.39820603       0.90363151       0.66074810 </v>
    <v>       0.89820603       0.40363151       0.16074810 </v>
    <v>       0.89820603       0.40363151       0.66074810 </v>
    <v>       0.89820603       0.90363151       0.16074810 </v>
    <v>       0.89820603       0.90363151       0.66074810 </v>
    <v>       0.39624536       0.15945691       0.40504723 </v>
    <v>       0.39624536       0.15945691       0.90504723 </v>
    <v>       0.39624536       0.65945691       0.40504723 </v>
    <v>       0.39624536       0.65945691       0.90504723 </v>
    <v>       0.89624536       0.15945691       0.40504723 </v>
    <v>       0.89624536       0.15945691       0.90504723 </v>
    <v>       0.89624536       0.65945691       0.40504723 </v>
    <v>       0.89624536       0.65945691       0.90504723 </v>
    <v>       0.34304155       0.09678517       0.09109860 </v>
    <v>       0.34304155       0.09678517       0.59109860 </v>
    <v>       0.34304155       0.59678517       0.09109860 </v>
    <v>       0.34304155       0.59678517       0.59109860 </v>
    <v>       0.84304155       0.09678517       0.09109860 </v>
    <v>       0.84304155       0.09678517       0.59109860 </v>
    <v>       0.84304155       0.59678517       0.09109860 </v>
    <v>       0.84304155       0.59678517       0.59109860 </v>
    <v>       0.10247692       0.09467150       0.34051749 </v>
    <v>       0.10247692       0.09467150       0.84051749 </v>
    <v>       0.10247692       0.59467150       0.34051749 </v>
    <v>       0.10247692       0.59467150       0.84051749 </v>
    <v>       0.60247692       0.09467150       0.34051749 </v>
    <v>       0.60247692       0.09467150       0.84051749 </v>
    <v>       0.60247692       0.59467150       0.34051749 </v>
    <v>       0.60247692       0.59467150       0.84051749 </v>
    <v>       0.10485733       0.34296445       0.09332980 </v>
    <v>       0.10485733       0.34296445       0.59332980 </v>
    <v>       0.10485733       0.84296445       0.09332980 </v>
    <v>       0.10485733       0.84296445       0.59332980 </v>
    <v>       0.60485733       0.34296445       0.09332980 </v>
    <v>       0.60485733       0.34296445       0.59332980 </v>
    <v>       0.60485733       0.84296445       0.09332980 </v>
    <v>       0.60485733       0.84296445       0.59332980 </v>
    <v>       0.49271854       0.49784683       0.33719227 </v>
    <v>       0.49271854       0.49784683       0.83719227 </v>
    <v>       0.49271854       0.99784683       0.33719227 </v>
    <v>       0.49271854       0.99784683       0.83719227 </v>
    <v>       0.99271854       0.49784683       0.33719227 </v>
    <v>       0.99271854       0.49784683       0.83719227 </v>
    <v>       0.99271854       0.99784683       0.33719227 </v>
    <v>       0.99271854       0.99784683       0.83719227 </v>
    <v>       0.49955195       0.33599933       0.49493564 </v>
    <v>       0.49955195       0.33599933       0.99493564 </v>
    <v>       0.49955195       0.83599933       0.49493564 </v>
    <v>       0.49955195       0.83599933       0.99493564 </v>
    <v>       0.99955195       0.33599933       0.49493564 </v>
    <v>       0.99955195       0.33599933       0.99493564 </v>
    <v>       0.99955195       0.83599933       0.49493564 </v>
    <v>       0.99955195       0.83599933       0.99493564 </v>
    <v>       0.17478754      -0.00263081       0.00387601 </v>
    <v>       0.17478754      -0.00263081       0.50387601 </v>
    <v>       0.17478754       0.49736919       0.00387601 </v>
    <v>       0.17478754       0.49736919       0.50387601 </v>
    <v>       0.67478754      -0.00263081       0.00387601 </v>
    <v>       0.67478754      -0.00263081       0.50387601 </v>
    <v>       0.67478754       0.49736919       0.00387601 </v>
    <v>       0.67478754       0.49736919       0.50387601 </v>
    <v>       0.00587848       0.00147346       0.16471968 </v>
    <v>       0.00587848       0.00147346       0.66471968 </v>
    <v>       0.00587848       0.50147346       0.16471968 </v>
    <v>       0.00587848       0.50147346       0.66471968 </v>
    <v>       0.50587848       0.00147346       0.16471968 </v>
    <v>       0.50587848       0.00147346       0.66471968 </v>
    <v>       0.50587848       0.50147346       0.16471968 </v>
    <v>       0.50587848       0.50147346       0.66471968 </v>
    <v>      -0.00358879       0.16722341       0.00527019 </v>
    <v>      -0.00358879       0.16722341       0.50527019 </v>
    <v>      -0.00358879       0.66722341       0.00527019 </v>
    <v>      -0.00358879       0.66722341       0.50527019 </v>
    <v>       0.49641121       0.16722341       0.00527019 </v>
    <v>       0.49641121       0.16722341       0.50527019 </v>
    <v>       0.49641121       0.66722341       0.00527019 </v>
    <v>       0.49641121       0.66722341       0.50527019 </v>
    <v>       0.24829033       0.25024463       0.24857546 </v>
    <v>       0.24829033       0.25024463       0.74857546 </v>
    <v>       0.24829033       0.75024463       0.24857546 </v>
    <v>       0.24829033       0.75024463       0.74857546 </v>
    <v>       0.74829033       0.25024463       0.24857546 </v>
    <v>       0.74829033       0.25024463       0.74857546 </v>
    <v>       0.74829033       0.75024463       0.24857546 </v>
    <v>       0.74829033       0.75024463       0.74857546 </v>
    <v>       0.33465926       0.50263305       0.49774372 </v>
    <v>       0.33465926       0.50263305       0.99774372 </v>
    <v>       0.33465926       0.00263305       0.49774372 </v>
    <v>       0.33465926       0.00263305       0.99774372 </v>
    <v>       0.83465926       0.50263305       0.49774372 </v>
    <v>       0.83465926       0.50263305       0.99774372 </v>
    <v>       0.83465926       0.00263305       0.49774372 </v>
    <v>       0.83465926       0.00263305       0.99774372 </v>
    <v>       0.31313506       0.30929826       0.29292479 </v>
    <v>       0.31313506       0.30929826       0.79292479 </v>
    <v>       0.31313506       0.80929826       0.29292479 </v>
    <v>       0.31313506       0.80929826       0.79292479 </v>
    <v>       0.81313506       0.30929826       0.29292479 </v>
    <v>       0.81313506       0.30929826       0.79292479 </v>
    <v>       0.81313506       0.80929826       0.29292479 </v>
    <v>       0.81313506       0.80929826       0.79292479 </v>
    <v>       0.18277306       0.18737948       0.20515037 </v>
    <v>       0.18277306       0.18737948       0.70515037 </v>
    <v>       0.18277306       0.68737948       0.20515037 </v>
    <v>       0.18277306       0.68737948       0.70515037 </v>
    <v>       0.68277306       0.18737948       0.20515037 </v>
    <v>       0.68277306       0.18737948       0.70515037 </v>
    <v>       0.68277306       0.68737948       0.20515037 </v>
    <v>       0.68277306       0.68737948       0.70515037 </v>
   </varray>
  </structure>
  <varray name="forces" >
   <v>       1.22681161      -0.28046638      -2.70045385 </v>
   <v>       1.22681161      -0.28046638      -2.70045385 </v>
   <v>       1.22681161      -0.28046638      -2.70045385 </v>
   <v>       1.22681161      -0.28046638      -2.70045385 </v>
   <v>       1.22681161      -0.28046638      -2.70045385 </v>
   <v>       1.22681161      -0.28046638      -2.70045385 </v>
   <v>       1.22681161      -0.28046638      -2.70045385 </v>
   <v>       1.22681161      -0.28046638      -2.70045385 </v>
   <v>       3.18543990       0.98711670      -1.85946070 </v>
   <v>       3.18543990       0.98711670      -1.85946070 </v>
   <v>       3.18543990       0.98711670      -1.85946070 </v>
   <v>       3.18543990       0.98711670      -1.85946070 </v>
   <v>       3.18543990       0.98711670      -1.85946070 </v>
   <v>       3.18543990       0.98711670      -1.85946070 </v>
   <v>       3.18543990       0.98711670      -1.85946070 </v>
   <v>       3.18543990       0.98711670      -1.85946070 </v>
   <v>       1.32644991      -0.01738461      -1.76769672 </v>
   <v>       1.32644991      -0.01738461      -1.76769672 </v>
   <v>       1.32644991      -0.01738461      -1.76769672 </v>
   <v>       1.32644991      -0.01738461      -1.76769672 </v>
   <v>       1.32644991      -0.01738461      -1.76769672 </v>
   <v>       1.32644991      -0.01738461      -1.76769672 </v>
   <v>       1.32644991      -0.01738461      -1.76769672 </v>
   <v>       1.32644991      -0.01738461      -1.76769672 </v>
   <v>      -1.61738818       0.43846179       2.70593086 </v>
   <v>      -1.61738818       0.43846179       2.70593086 </v>
   <v>      -1.61738818       0.43846179       2.70593086 </v>
   <v>      -1.61738818       0.43846179       2.70593086 </v>
   <v>      -1.61738818       0.43846179       2.70593086 </v>
   <v>      -1.61738818       0.43846179       2.70593086 </v>
   <v>      -1.61738818       0.43846179       2.70593086 </v>
   <v>      -1.61738818       0.43846179       2.70593086 </v>
   <v>      -3.42567108      -0.99639900       2.25204131 </v>
   <v>      -3.42567108      -0.99639900       2.25204131 </v>
   <v>      -3.42567108      -0.99639900       2.25204131 </v>
   <v>      -3.42567108      -0.99639900       2.25204131 </v>
   <v>      -3.42567108      -0.99639900       2.25204131 </v>
   <v>      -3.42567108      -0.99639900       2.25204131 </v>
   <v>      -3.42567108      -0.99639900       2.25204131 </v>
   <v>      -3.42567108      -0.99639900       2.25204131 </v>
   <v>      -1.72108201      -0.57574361       1.82935214 </v>
   <v>      -1.72108201      -0.57574361       1.82935214 </v>
   <v>      -1.72108201      -0.57574361       1.82935214 </v>
   <v>      -1.72108201      -0.57574361       1.82935214 </v>
   <v>      -1.72108201      -0.57574361       1.82935214 </v>
   <v>      -1.72108201      -0.57574361       1.82935214 </v>
   <v>      -1.72108201      -0.57574361       1.82935214 </v>
   <v>      -1.72108201      -0.57574361       1.82935214 </v>
   <v>       0.15095866      -0.15235703       0.36114760 </v>
   <v>       0.15095866      -0.15235703       0.36114760 </v>
   <v>       0.15095866      -0.15235703       0.36114760 </v>
   <v>       0.15095866      -0.15235703       0.36114760 </v>
   <v>       0.15095866      -0.15235703       0.36114760 </v>
   <v>       0.15095866      -0.15235703       0.36114760 </v>
   <v>       0.15095866      -0.15235703       0.36114760 </v>
   <v>       0.15095866      -0.15235703       0.36114760 </v>
   <v>      -0.89434685       0.20142611       0.24659874 </v>
   <v>      -0.89434685       0.20142611       0.24659874 </v>
   <v>      -0.89434685       0.20142611       0.24659874 </v>
   <v>      -0.89434685       0.20142611       0.24659874 </v>
   <v>      -0.89434685       0.20142611       0.24659874 </v>
   <v>      -0.89434685       0.20142611       0.24659874 </v>
   <v>      -0.89434685       0.20142611       0.24659874 </v>
   <v>      -0.89434685       0.20142611       0.24659874 </v>
   <v>      -0.59047511       1.26842449       0.13978828 </v>
   <v>      -0.59047511       1.26842449       0.13978828 </v>
   <v>      -0.59047511       1.26842449       0.13978828 </v>
   <v>      -0.59047511       1.26842449       0.13978828 </v>
   <v>      -0.59047511       1.26842449       0.13978828 </v>
   <v>      -0.59047511       1.26842449       0.13978828 </v>
   <v>      -0.59047511       1.26842449       0.13978828 </v>
   <v>      -0.59047511       1.26842449       0.13978828 </v>
   <v>      -0.25913835       0.43245804      -0.41300460 </v>
   <v>      -0.25913835       0.43245804      -0.41300460 </v>
   <v>      -0.25913835       0.43245804      -0.41300460 </v>
   <v>      -0.25913835       0.43245804      -0.41300460 </v>
   <v>      -0.25913835       0.43245804      -0.41300460 </v>
   <v>      -0.25913835       0.43245804      -0.41300460 </v>
   <v>      -0.25913835       0.43245804      -0.41300460 </v>
   <v>      -0.25913835       0.43245804      -0.41300460 </v>
   <v>       1.23047214      -0.64130245      -0.09365658 </v>
   <v>       1.23047214      -0.64130245      -0.09365658 </v>
   <v>       1.23047214      -0.64130245      -0.09365658 </v>
   <v>       1.23047214      -0.64130245      -0.09365658 </v>
   <v>       1.23047214      -0.64130245      -0.09365658 </v>
   <v>       1.23047214      -0.64130245      -0.09365658 </v>
   <v>       1.23047214      -0.64130245      -0.09365658 </v>
   <v>       1.23047214      -0.64130245      -0.09365658 </v>
   <v>      -1.08178277      -0.59589475      -1.30054813 </v>
   <v>      -1.08178277      -0.59589475      -1.30054813 </v>
   <v>      -1.08178277      -0.59589475      -1.30054813 </v>
   <v>      -1.08178277      -0.59589475      -1.30054813 </v>
   <v>      -1.08178277      -0.59589475      -1.30054813 </v>
   <v>      -1.08178277      -0.59589475      -1.30054813 </v>
   <v>      -1.08178277      -0.59589475      -1.30054813 </v>
   <v>      -1.08178277      -0.59589475      -1.30054813 </v>
   <v>       0.86412354      -0.89098982      -0.12244253 </v>
   <v>       0.86412354      -0.89098982      -0.12244253 </v>
   <v>       0.86412354      -0.89098982      -0.12244253 </v>
   <v>       0.86412354      -0.89098982      -0.12244253 </v>
   <v>       0.86412354      -0.89098982      -0.12244253 </v>
   <v>       0.86412354      -0.89098982      -0.12244253 </v>
   <v>       0.86412354      -0.89098982      -0.12244253 </v>
   <v>       0.86412354      -0.89098982      -0.12244253 </v>
   <v>      -1.03745118       0.61787876       6.71836920 </v>
   <v>      -1.03745118       0.61787876       6.71836920 </v>
   <v>      -1.03745118       0.61787876       6.71836920 </v>
   <v>      -1.03745118       0.61787876       6.71836920 </v>
   <v>      -1.03745118       0.61787876       6.71836920 </v>
   <v>      -1.03745118       0.61787876       6.71836920 </v>
   <v>      -1.03745118       0.61787876       6.71836920 </v>
   <v>      -1.03745118       0.61787876       6.71836920 </v>
   <v>       2.64307978       0.20477175      -5.99596505 </v>
   <v>       2.64307978       0.20477175      -5.99596505 </v>
   <v>       2.64307978       0.20477175      -5.99596505 </v>
   <v>       2.64307978       0.20477175      -5.99596505 </v>
   <v>       2.64307978       0.20477175      -5.99596505 </v>
   <v>       2.64307978       0.20477175      -5.99596505 </v>
   <v>       2.64307978       0.20477175      -5.99596505 </v>
   <v>       2.64307978       0.20477175      -5.99596505 </v>
  </varray>
  <varray name="stress" >
   <v>     147.65695157     231.67494838      44.06109007 </v>
   <v>     231.67494839       4.02296704     -14.83977733 </v>
   <v>      44.06109007     -14.83977730     157.15165845 </v>
  </varray>
  <energy>
   <i name="e_fr_energy">   -862.22177459 </i>
   <i name="e_wo_entrp">   -862.22177459 </i>
   <i name="e_0_energy">   -862.22177459 </i>
  </energy>
  <time name="totalsc">  143.70  142.96</time>
 </calculation>
 <calculation>
  <scstep>
   <time name="dav">    7.29    7.31</time>
   <time name="total">    9.30    9.32</time>
   <energy>
    <i name="alphaZ">   1199.86758843 </i>
    <i name="ewald"> -11670.46044829 </i>
    <i name="hartreedc">  -1540.95312284 </i>
    <i name="XCdc">   1055.52013976 </i>
    <i name="pawpsdc">  38071.66230172 </i>
    <i name="pawaedc"> -38014.83706723 </i>
    <i name="eentropy">      0.00000000 </i>
    <i name="bandstr">   -342.76412804 </i>
    <i name="atom">  10363.97701633 </i>
    <i name="e_fr_energy">   -877.98772016 </i>
    <i name="e_wo_entrp">   -877.98772016 </i>
    <i name="e_0_energy">   -877.98772016 </i>
   </energy>
  </scstep>
  <scstep>
   <time name="diag">    1.48    1.49</time>
   <time name="diis">    6.23    6.16</time>
   <time name="orth">    0.04    0.04</time>
[...]
       <r>    -6.7404    26.2005    52.5984 </r>
       <r>    -6.6527    23.1848    54.7347 </r>
       <r>    -6.5650     4.0098    55.8798 </r>
       <r>    -6.4774    10.7700    56.6475 </r>
       <r>    -6.3897    13.3282    57.6936 </r>
       <r>    -6.3020    16.7816    59.0127 </r>
       <r>    -6.2143    20.1090    60.6311 </r>
       <r>    -6.1267    15.3001    62.2660 </r>
       <r>    -6.0390    10.4393    63.3306 </r>
       <r>    -5.9513     2.2178    63.9631 </r>
       <r>    -5.8637     0.0000    64.0000 </r>
       <r>    -5.7760     7.3296    64.2116 </r>
       <r>    -5.6883    27.8817    65.7176 </r>
       <r>    -5.6007    14.9317    67.5967 </r>
       <r>    -5.5130    11.5923    68.6566 </r>
       <r>    -5.4253    27.4466    70.2218 </r>
       <r>    -5.3377    52.4475    74.1639 </r>
       <r>    -5.2500     5.2947    76.0200 </r>
       <r>    -5.1623    21.0102    77.4688 </r>
       <r>    -5.0747    32.9906    79.8146 </r>
       <r>    -4.9870    30.2421    82.7996 </r>
       <r>    -4.8993    10.5150    84.2722 </r>
       <r>    -4.8117    34.7145    86.7096 </r>
       <r>    -4.7240    10.1877    87.9868 </r>
       <r>    -4.6363    14.9406    89.1228 </r>
       <r>    -4.5487    14.5895    90.4057 </r>
       <r>    -4.4610    21.0679    91.9096 </r>
       <r>    -4.3733    18.7374    94.0174 </r>
       <r>    -4.2857     8.0145    94.9977 </r>
       <r>    -4.1980     4.4874    95.5243 </r>
       <r>    -4.1103     2.3546    95.8192 </r>
       <r>    -4.0227     0.9036    95.9570 </r>
       <r>    -3.9350     0.1344    95.9975 </r>
       <r>    -3.8473     0.0000    96.0000 </r>
       <r>    -3.7597     0.1886    96.0014 </r>
       <r>    -3.6720     5.9160    96.2451 </r>
       <r>    -3.5843     8.6705    96.8694 </r>
       <r>    -3.4967    12.2436    97.7823 </r>
       <r>    -3.4090    12.8944    98.9042 </r>
       <r>    -3.3213    13.7814   100.0653 </r>
       <r>    -3.2337    15.7930   101.3534 </r>
       <r>    -3.1460    18.9298   102.8672 </r>
       <r>    -3.0583    25.5461   104.7541 </r>
       <r>    -2.9707    18.4309   106.8828 </r>
       <r>    -2.8830    18.3272   108.6900 </r>
       <r>    -2.7953    14.5287   109.9134 </r>
       <r>    -2.7077    23.2890   112.2525 </r>
       <r>    -2.6200    40.6891   114.7534 </r>
       <r>    -2.5323    16.3568   116.3476 </r>
       <r>    -2.4447    26.4675   118.0998 </r>
       <r>    -2.3570    12.0430   120.3602 </r>
       <r>    -2.2693    53.0559   121.5530 </r>
       <r>    -2.1817    23.7355   123.9272 </r>
       <r>    -2.0940    31.6112   126.1051 </r>
       <r>    -2.0063    34.8552   129.2123 </r>
       <r>    -1.9187    25.3680   131.7965 </r>
       <r>    -1.8310    31.9403   134.1180 </r>
       <r>    -1.7433    46.3947   137.6972 </r>
       <r>    -1.6557    44.1141   141.9337 </r>
       <r>    -1.5680    27.4115   145.1376 </r>
       <r>    -1.4803    25.2490   147.4239 </r>
       <r>    -1.3927    22.8757   149.5462 </r>
       <r>    -1.3050    12.4301   151.1077 </r>
       <r>    -1.2173    17.6233   151.9176 </r>
       <r>    -1.1297    34.4131   155.1924 </r>
       <r>    -1.0420    50.8489   158.0899 </r>
       <r>    -0.9543    40.2711   162.7396 </r>
       <r>    -0.8666    23.2115   165.4774 </r>
       <r>    -0.7790    21.4071   167.2710 </r>
       <r>    -0.6913    47.4855   169.6753 </r>
       <r>    -0.6036    39.2511   173.7142 </r>
       <r>    -0.5160    23.4395   176.1420 </r>
       <r>    -0.4283    23.9900   178.1846 </r>
       <r>    -0.3406    28.1371   180.4552 </r>
       <r>    -0.2530    25.9346   182.9182 </r>
       <r>    -0.1653    19.0491   184.8920 </r>
       <r>    -0.0776    44.9382   187.3665 </r>
       <r>     0.0100    17.6513   188.5875 </r>
       <r>     0.0977    71.3334   192.5786 </r>
       <r>     0.1854    44.6143   198.2505 </r>
       <r>     0.2730    21.4306   200.6879 </r>
       <r>     0.3607    37.1275   203.1839 </r>
       <r>     0.4484    21.8958   205.7699 </r>
       <r>     0.5360    35.1507   208.4185 </r>
       <r>     0.6237    30.9040   211.3470 </r>
       <r>     0.7114    22.7227   213.5726 </r>
       <r>     0.7990    27.5351   215.7487 </r>
       <r>     0.8867    31.2301   218.2217 </r>
       <r>     0.9744    54.0104   221.6740 </r>
       <r>     1.0620    44.2221   226.0674 </r>
       <r>     1.1497    43.1639   229.9152 </r>
       <r>     1.2374    44.7656   233.8334 </r>
       <r>     1.3250    19.3954   236.8119 </r>
       <r>     1.4127    27.1362   238.3993 </r>
       <r>     1.5004    28.9707   241.5119 </r>
       <r>     1.5880    35.7562   244.3046 </r>
       <r>     1.6757    62.7743   248.1698 </r>
       <r>     1.7634    35.1841   252.1296 </r>
       <r>     1.8510    30.3020   254.6172 </r>
       <r>     1.9387    66.4038   257.8155 </r>
       <r>     2.0264    69.7002   263.0216 </r>
       <r>     2.1140    36.3405   267.6361 </r>
       <r>     2.2017    59.3866   271.3486 </r>
       <r>     2.2894    21.8250   275.0046 </r>
       <r>     2.3770    57.7321   277.3837 </r>
       <r>     2.4647    66.8831   282.0640 </r>
       <r>     2.5524    47.8224   286.8206 </r>
       <r>     2.6400    44.8692   290.7883 </r>
       <r>     2.7277    43.9455   295.0175 </r>
       <r>     2.8154   102.8221   299.6794 </r>
       <r>     2.9030    21.3256   302.3886 </r>
       <r>     2.9907    55.8385   305.8845 </r>
       <r>     3.0784    65.3025   311.2395 </r>
       <r>     3.1660    38.2820   315.6620 </r>
       <r>     3.2537    51.5327   319.6862 </r>
       <r>     3.3414    40.2958   324.3671 </r>
       <r>     3.4290    35.5304   327.4997 </r>
       <r>     3.5167    28.5225   330.2984 </r>
       <r>     3.6044    32.4128   332.9965 </r>
       <r>     3.6920    44.7243   335.8441 </r>
       <r>     3.7797    59.3157   340.7693 </r>
       <r>     3.8674    50.9140   345.6552 </r>
       <r>     3.9550    36.0785   349.3976 </r>
       <r>     4.0427    28.0252   351.6035 </r>
       <r>     4.1304    83.7665   356.7319 </r>
       <r>     4.2180    35.6958   363.8373 </r>
       <r>     4.3057    27.1887   366.1299 </r>
       <r>     4.3934    33.9822   368.6032 </r>
       <r>     4.4810    41.3598   371.9268 </r>
       <r>     4.5687    42.0895   375.6133 </r>
       <r>     4.6564    30.1281   378.7675 </r>
       <r>     4.7441    24.3551   381.1909 </r>
       <r>     4.8317    13.3931   382.8684 </r>
       <r>     4.9194     5.4478   383.6385 </r>
       <r>     5.0071     1.3439   383.9106 </r>
       <r>     5.0947     0.4223   383.9843 </r>
       <r>     5.1824     0.0197   383.9998 </r>
       <r>     5.2701     0.0000   384.0000 </r>
       <r>     5.3577     0.0000   384.0000 </r>
       <r>     5.4454     0.0000   384.0000 </r>
       <r>     5.5331     0.0000   384.0000 </r>
       <r>     5.6207     0.0000   384.0000 </r>
       <r>     5.7084     0.0000   384.0000 </r>
       <r>     5.7961     0.0000   384.0000 </r>
       <r>     5.8837     0.0000   384.0000 </r>
       <r>     5.9714     0.0000   384.0000 </r>
       <r>     6.0591     0.0000   384.0000 </r>
       <r>     6.1467     0.0000   384.0000 </r>
       <r>     6.2344     0.0000   384.0000 </r>
       <r>     6.3221     0.0000   384.0000 </r>
       <r>     6.4097     0.0000   384.0000 </r>
       <r>     6.4974     0.0000   384.0000 </r>
       <r>     6.5851     0.0000   384.0000 </r>
       <r>     6.6727     0.0000   384.0000 </r>
       <r>     6.7604     0.0000   384.0000 </r>
       <r>     6.8481     0.0000   384.0000 </r>
       <r>     6.9357     0.0000   384.0000 </r>
       <r>     7.0234     0.0000   384.0000 </r>
       <r>     7.1111     0.0000   384.0000 </r>
       <r>     7.1987     0.0000   384.0000 </r>
       <r>     7.2864     0.0000   384.0000 </r>
       <r>     7.3741     0.0000   384.0000 </r>
       <r>     7.4617     0.0000   384.0000 </r>
       <r>     7.5494     0.0000   384.0000 </r>
       <r>     7.6371     0.0000   384.0000 </r>
       <r>     7.7247     0.0000   384.0000 </r>
       <r>     7.8124     0.0000   384.0000 </r>
       <r>     7.9001     0.0000   384.0000 </r>
       <r>     7.9877     0.0000   384.0000 </r>
       <r>     8.0754     0.0000   384.0000 </r>
       <r>     8.1631     0.4764   384.0094 </r>
       <r>     8.2507     3.4691   384.1612 </r>
       <r>     8.3384     9.3566   384.7022 </r>
       <r>     8.4261    31.5259   386.3729 </r>
       <r>     8.5137    21.1082   388.9949 </r>
       <r>     8.6014    42.3942   391.9434 </r>
       <r>     8.6891    20.5362   394.3125 </r>
       <r>     8.7767    19.4803   396.0994 </r>
       <r>     8.8644    17.8588   397.6333 </r>
       <r>     8.9521    26.0868   399.5930 </r>
       <r>     9.0397    27.7634   402.2220 </r>
       <r>     9.1274    29.8299   404.8368 </r>
       <r>     9.2151    33.0279   407.4941 </r>
       <r>     9.3027    28.5993   410.2889 </r>
       <r>     9.3904    25.9316   412.5860 </r>
       <r>     9.4781    28.9987   415.0702 </r>
       <r>     9.5657    26.9776   417.5194 </r>
       <r>     9.6534    36.5251   420.1205 </r>
       <r>     9.7411    44.4231   423.8953 </r>
       <r>     9.8287    18.1483   426.6702 </r>
       <r>     9.9164    60.3313   429.7251 </r>
       <r>    10.0041    30.1072   432.7788 </r>
       <r>    10.0917    28.7275   435.3734 </r>
       <r>    10.1794    22.9575   437.2177 </r>
       <r>    10.2671    26.1135   439.5632 </r>
       <r>    10.3548    24.5054   442.1743 </r>
       <r>    10.4424    25.5143   444.2941 </r>
       <r>    10.5301    42.3062   447.1479 </r>
       <r>    10.6178    20.3776   449.8570 </r>
       <r>    10.7054    19.4018   451.4650 </r>
       <r>    10.7931    18.6270   453.1751 </r>
       <r>    10.8808    25.5203   455.0648 </r>
       <r>    10.9684    25.8703   457.5119 </r>
       <r>    11.0561    21.0474   459.5486 </r>
       <r>    11.1438    17.1185   461.3173 </r>
       <r>    11.2314    26.0827   463.1938 </r>
       <r>    11.3191    27.6621   465.5792 </r>
       <r>    11.4068    27.1150   467.9962 </r>
       <r>    11.4944    23.9049   470.2574 </r>
       <r>    11.5821    20.3065   472.1354 </r>
       <r>    11.6698    19.3176   473.8680 </r>
       <r>    11.7574    21.6389   475.6324 </r>
       <r>    11.8451    26.2689   477.7511 </r>
       <r>    11.9328    26.7512   480.0958 </r>
       <r>    12.0204    23.9655   482.3744 </r>
       <r>    12.1081    18.7965   484.2127 </r>
       <r>    12.1958    29.8226   486.0159 </r>
       <r>    12.2834    49.6934   488.4599 </r>
       <r>    12.3711    48.7203   492.6965 </r>
       <r>    12.4588    12.8967   495.0119 </r>
       <r>    12.5464    18.3931   496.2012 </r>
       <r>    12.6341    39.2862   499.3613 </r>
       <r>    12.7218    28.5835   501.9053 </r>
       <r>    12.8094     1.9373   504.0000 </r>
       <r>    12.8971    54.4724   505.0812 </r>
       <r>    12.9848     0.0000   506.0000 </r>
       <r>    13.0724     0.0000   506.0000 </r>
       <r>    13.1601     0.0000   506.0000 </r>
       <r>    13.2478     0.0000   506.0000 </r>
       <r>    13.3354     0.0000   506.0000 </r>
       <r>    13.4231     0.0000   506.0000 </r>
       <r>    13.5108     0.0000   506.0000 </r>
       <r>    13.5984     0.0000   506.0000 </r>
       <r>    13.6861     0.0000   506.0000 </r>
       <r>    13.7738     0.0000   506.0000 </r>
       <r>    13.8614     0.0000   506.0000 </r>
       <r>    13.9491     0.0000   506.0000 </r>
       <r>    14.0368     0.0000   506.0000 </r>
       <r>    14.1244     0.0000   506.0000 </r>
      </set>
     </set>
    </array>
   </total>
  </dos>
 </calculation>
 <structure name="finalpos" >
  <crystal>
   <varray name="basis" >
    <v>       9.14863309      -0.68946216       4.15510927 </v>
    <v>       3.35299278       8.83220494       4.29219787 </v>
    <v>      -0.06967641       0.10977431      10.37482052 </v>
   </varray>
   <i name="volume">    862.27863439 </i>
   <varray name="rec_basis" >
    <v>       0.10572147      -0.04068959       0.00114055 </v>
    <v>       0.00882449       0.11041088      -0.00110898 </v>
    <v>      -0.04599219      -0.02938226       0.09638922 </v>
   </varray>
  </crystal>
  <varray name="positions" >
   <v>       0.15768779       0.40440280       0.40440467 </v>
   <v>       0.15768779       0.40440280       0.90440467 </v>
   <v>       0.15768779       0.90440280       0.40440467 </v>
   <v>       0.15768779       0.90440280       0.90440467 </v>
   <v>       0.65768779       0.40440280       0.40440467 </v>
   <v>       0.65768779       0.40440280       0.90440467 </v>
   <v>       0.65768779       0.90440280       0.40440467 </v>
   <v>       0.65768779       0.90440280       0.90440467 </v>
   <v>       0.40134564       0.40127801       0.15799434 </v>
   <v>       0.40134564       0.40127801       0.65799434 </v>
   <v>       0.40134564       0.90127801       0.15799434 </v>
   <v>       0.40134564       0.90127801       0.65799434 </v>
   <v>       0.90134564       0.40127801       0.15799434 </v>
   <v>       0.90134564       0.40127801       0.65799434 </v>
   <v>       0.90134564       0.90127801       0.15799434 </v>
   <v>       0.90134564       0.90127801       0.65799434 </v>
   <v>       0.40131631       0.15799566       0.40126902 </v>
   <v>       0.40131631       0.15799566       0.90126902 </v>
   <v>       0.40131631       0.65799566       0.40126902 </v>
   <v>       0.40131631       0.65799566       0.90126902 </v>
   <v>       0.90131631       0.15799566       0.40126902 </v>
   <v>       0.90131631       0.15799566       0.90126902 </v>
   <v>       0.90131631       0.65799566       0.40126902 </v>
   <v>       0.90131631       0.65799566       0.90126902 </v>
   <v>       0.34221397       0.09586359       0.09587369 </v>
   <v>       0.34221397       0.09586359       0.59587369 </v>
   <v>       0.34221397       0.59586359       0.09587369 </v>
   <v>       0.34221397       0.59586359       0.59587369 </v>
   <v>       0.84221397       0.09586359       0.09587369 </v>
   <v>       0.84221397       0.09586359       0.59587369 </v>
   <v>       0.84221397       0.59586359       0.09587369 </v>
   <v>       0.84221397       0.59586359       0.59587369 </v>
   <v>       0.09919468       0.09775632       0.34342410 </v>
   <v>       0.09919468       0.09775632       0.84342410 </v>
   <v>       0.09919468       0.59775632       0.34342410 </v>
   <v>       0.09919468       0.59775632       0.84342410 </v>
   <v>       0.59919468       0.09775632       0.34342410 </v>
   <v>       0.59919468       0.09775632       0.84342410 </v>
   <v>       0.59919468       0.59775632       0.34342410 </v>
   <v>       0.59919468       0.59775632       0.84342410 </v>
   <v>       0.09922091       0.34340851       0.09776913 </v>
   <v>       0.09922091       0.34340851       0.59776913 </v>
   <v>       0.09922091       0.84340851       0.09776913 </v>
   <v>       0.09922091       0.84340851       0.59776913 </v>
   <v>       0.59922091       0.34340851       0.09776913 </v>
   <v>       0.59922091       0.34340851       0.59776913 </v>
   <v>       0.59922091       0.84340851       0.09776913 </v>
   <v>       0.59922091       0.84340851       0.59776913 </v>
   <v>       0.49398457       0.49817813       0.33719987 </v>
   <v>       0.49398457       0.49817813       0.83719987 </v>
   <v>       0.49398457       0.99817813       0.33719987 </v>
   <v>       0.49398457       0.99817813       0.83719987 </v>
   <v>       0.99398457       0.49817813       0.33719987 </v>
   <v>       0.99398457       0.49817813       0.83719987 </v>
   <v>       0.99398457       0.99817813       0.33719987 </v>
   <v>       0.99398457       0.99817813       0.83719987 </v>
   <v>       0.49399492       0.33720867       0.49816780 </v>
   <v>       0.49399492       0.33720867       0.99816780 </v>
   <v>       0.49399492       0.83720867       0.49816780 </v>
   <v>       0.49399492       0.83720867       0.99816780 </v>
   <v>       0.99399492       0.33720867       0.49816780 </v>
   <v>       0.99399492       0.33720867       0.99816780 </v>
   <v>       0.99399492       0.83720867       0.49816780 </v>
   <v>       0.99399492       0.83720867       0.99816780 </v>
   <v>       0.17067267       0.00340099       0.00341562 </v>
   <v>       0.17067267       0.00340099       0.50341562 </v>
   <v>       0.17067267       0.50340099       0.00341562 </v>
   <v>       0.17067267       0.50340099       0.50341562 </v>
   <v>       0.67067267       0.00340099       0.00341562 </v>
   <v>       0.67067267       0.00340099       0.50341562 </v>
   <v>       0.67067267       0.50340099       0.00341562 </v>
   <v>       0.67067267       0.50340099       0.50341562 </v>
   <v>       0.00437586       0.00233778       0.16477052 </v>
   <v>       0.00437586       0.00233778       0.66477052 </v>
   <v>       0.00437586       0.50233778       0.16477052 </v>
   <v>       0.00437586       0.50233778       0.66477052 </v>
   <v>       0.50437586       0.00233778       0.16477052 </v>
   <v>       0.50437586       0.00233778       0.66477052 </v>
   <v>       0.50437586       0.50233778       0.16477052 </v>
   <v>       0.50437586       0.50233778       0.66477052 </v>
   <v>       0.00434489       0.16477828       0.00234508 </v>
   <v>       0.00434489       0.16477828       0.50234508 </v>
   <v>       0.00434489       0.66477828       0.00234508 </v>
   <v>       0.00434489       0.66477828       0.50234508 </v>
   <v>       0.50434489       0.16477828       0.00234508 </v>
   <v>       0.50434489       0.16477828       0.50234508 </v>
   <v>       0.50434489       0.66477828       0.00234508 </v>
   <v>       0.50434489       0.66477828       0.50234508 </v>
   <v>       0.24607843       0.24908770       0.24906081 </v>
   <v>       0.24607843       0.24908770       0.74906081 </v>
   <v>       0.24607843       0.74908770       0.24906081 </v>
   <v>       0.24607843       0.74908770       0.74906081 </v>
   <v>       0.74607843       0.24908770       0.24906081 </v>
   <v>       0.74607843       0.24908770       0.74906081 </v>
   <v>       0.74607843       0.74908770       0.24906081 </v>
   <v>       0.74607843       0.74908770       0.74906081 </v>
   <v>       0.33935499       0.49763110       0.49762044 </v>
   <v>       0.33935499       0.49763110       0.99762044 </v>
   <v>       0.33935499      -0.00236890       0.49762044 </v>
   <v>       0.33935499      -0.00236890       0.99762044 </v>
   <v>       0.83935499       0.49763110       0.49762044 </v>
   <v>       0.83935499       0.49763110       0.99762044 </v>
   <v>       0.83935499      -0.00236890       0.49762044 </v>
   <v>       0.83935499      -0.00236890       0.99762044 </v>
   <v>       0.30382915       0.30990414       0.30986328 </v>
   <v>       0.30382915       0.30990414       0.80986328 </v>
   <v>       0.30382915       0.80990414       0.30986328 </v>
   <v>       0.30382915       0.80990414       0.80986328 </v>
   <v>       0.80382915       0.30990414       0.30986328 </v>
   <v>       0.80382915       0.30990414       0.80986328 </v>
   <v>       0.80382915       0.80990414       0.30986328 </v>
   <v>       0.80382915       0.80990414       0.80986328 </v>
   <v>       0.19238525       0.18676930       0.18682262 </v>
   <v>       0.19238525       0.18676930       0.68682262 </v>
   <v>       0.19238525       0.68676930       0.18682262 </v>
   <v>       0.19238525       0.68676930       0.68682262 </v>
   <v>       0.69238525       0.18676930       0.18682262 </v>
   <v>       0.69238525       0.18676930       0.68682262 </v>
   <v>       0.69238525       0.68676930       0.18682262 </v>
   <v>       0.69238525       0.68676930       0.68682262 </v>
  </varray>
 </structure>
</modeling>
