unknown system                          
            1
     9.247118    0.049542    4.191143
     4.132678    8.982341    4.285847
    -0.039919    0.071105   10.408063
   B    C 
    96    24
unknown system                          
            1
     9.247118    0.049542    4.191143
     4.132678    8.982341    4.285847
    -0.039919    0.071105   10.408063
   B    C 
    96    24
Direct configuration=     1
   0.15792300  0.40375800  0.40375800
   0.15792300  0.40375800  0.90375800
   0.15792300  0.90375800  0.40375800
   0.15792300  0.90375800  0.90375800
   0.65792300  0.40375800  0.40375800
   0.65792300  0.40375800  0.90375800
   0.65792300  0.90375800  0.40375800
   0.65792300  0.90375800  0.90375800
   0.40163200  0.40233800  0.15722000
   0.40163200  0.40233800  0.65722000
   0.40163200  0.90233800  0.15722000
   0.40163200  0.90233800  0.65722000
   0.90163200  0.40233800  0.15722000
   0.90163200  0.40233800  0.65722000
   0.90163200  0.90233800  0.15722000
   0.90163200  0.90233800  0.65722000
   0.40163200  0.15722000  0.40233800
   0.40163200  0.15722000  0.90233800
   0.40163200  0.65722000  0.40233800
   0.40163200  0.65722000  0.90233800
   0.90163200  0.15722000  0.40233800
   0.90163200  0.15722000  0.90233800
   0.90163200  0.65722000  0.40233800
   0.90163200  0.65722000  0.90233800
   0.34136600  0.09666500  0.09666500
   0.34136600  0.09666500  0.59666500
   0.34136600  0.59666500  0.09666500
   0.34136600  0.59666500  0.59666500
   0.84136600  0.09666500  0.09666500
   0.84136600  0.09666500  0.59666500
   0.84136600  0.59666500  0.09666500
   0.84136600  0.59666500  0.59666500
   0.09870000  0.09683600  0.34371100
   0.09870000  0.09683600  0.84371100
   0.09870000  0.59683600  0.34371100
   0.09870000  0.59683600  0.84371100
   0.59870000  0.09683600  0.34371100
   0.59870000  0.09683600  0.84371100
   0.59870000  0.59683600  0.34371100
   0.59870000  0.59683600  0.84371100
   0.09870000  0.34371100  0.09683600
   0.09870000  0.34371100  0.59683600
   0.09870000  0.84371100  0.09683600
   0.09870000  0.84371100  0.59683600
   0.59870000  0.34371100  0.09683600
   0.59870000  0.34371100  0.59683600
   0.59870000  0.84371100  0.09683600
   0.59870000  0.84371100  0.59683600
   0.49444700  0.49739900  0.33679800
   0.49444700  0.49739900  0.83679800
   0.49444700  0.99739900  0.33679800
   0.49444700  0.99739900  0.83679800
   0.99444700  0.49739900  0.33679800
   0.99444700  0.49739900  0.83679800
   0.99444700  0.99739900  0.33679800
   0.99444700  0.99739900  0.83679800
   0.49444700  0.33679800  0.49739900
   0.49444700  0.33679800  0.99739900
   0.49444700  0.83679800  0.49739900
   0.49444700  0.83679800  0.99739900
   0.99444700  0.33679800  0.49739900
   0.99444700  0.33679800  0.99739900
   0.99444700  0.83679800  0.49739900
   0.99444700  0.83679800  0.99739900
   0.17079500  0.00295000  0.00295000
   0.17079500  0.00295000  0.50295000
   0.17079500  0.50295000  0.00295000
   0.17079500  0.50295000  0.50295000
   0.67079500  0.00295000  0.00295000
   0.67079500  0.00295000  0.50295000
   0.67079500  0.50295000  0.00295000
   0.67079500  0.50295000  0.50295000
   0.00347500  0.00275500  0.16436200
   0.00347500  0.00275500  0.66436200
   0.00347500  0.50275500  0.16436200
   0.00347500  0.50275500  0.66436200
   0.50347500  0.00275500  0.16436200
   0.50347500  0.00275500  0.66436200
   0.50347500  0.50275500  0.16436200
   0.50347500  0.50275500  0.66436200
   0.00347500  0.16436200  0.00275500
   0.00347500  0.16436200  0.50275500
   0.00347500  0.66436200  0.00275500
   0.00347500  0.66436200  0.50275500
   0.50347500  0.16436200  0.00275500
   0.50347500  0.16436200  0.50275500
   0.50347500  0.66436200  0.00275500
   0.50347500  0.66436200  0.50275500
   0.24799500  0.24900900  0.24900900
   0.24799500  0.24900900  0.74900900
   0.24799500  0.74900900  0.24900900
   0.24799500  0.74900900  0.74900900
   0.74799500  0.24900900  0.24900900
   0.74799500  0.24900900  0.74900900
   0.74799500  0.74900900  0.24900900
   0.74799500  0.74900900  0.74900900
   0.33833600  0.49792800  0.49792800
   0.33833600  0.49792800  0.99792800
   0.33833600  0.99792800  0.49792800
   0.33833600  0.99792800  0.99792800
   0.83833600  0.49792800  0.49792800
   0.83833600  0.49792800  0.99792800
   0.83833600  0.99792800  0.49792800
   0.83833600  0.99792800  0.99792800
   0.30608800  0.30943700  0.30943700
   0.30608800  0.30943700  0.80943700
   0.30608800  0.80943700  0.30943700
   0.30608800  0.80943700  0.80943700
   0.80608800  0.30943700  0.30943700
   0.80608800  0.30943700  0.80943700
   0.80608800  0.80943700  0.30943700
   0.80608800  0.80943700  0.80943700
   0.19098900  0.18883500  0.18883500
   0.19098900  0.18883500  0.68883500
   0.19098900  0.68883500  0.18883500
   0.19098900  0.68883500  0.68883500
   0.69098900  0.18883500  0.18883500
   0.69098900  0.18883500  0.68883500
   0.69098900  0.68883500  0.18883500
   0.69098900  0.68883500  0.68883500
unknown system                          
            1
     9.183797   -0.821586    4.100658
     3.239346    8.862182    4.236325
    -0.078853    0.107855   10.254650
   B    C 
    96    24
Direct configuration=     2
   0.15696737  0.40302383  0.40887163
   0.15696737  0.40302383  0.90887163
   0.15696737  0.90302383  0.40887163
   0.15696737  0.90302383  0.90887163
   0.65696737  0.40302383  0.40887163
   0.65696737  0.40302383  0.90887163
   0.65696737  0.90302383  0.40887163
   0.65696737  0.90302383  0.90887163
   0.39820603  0.40363151  0.16074810
   0.39820603  0.40363151  0.66074810
   0.39820603  0.90363151  0.16074810
   0.39820603  0.90363151  0.66074810
   0.89820603  0.40363151  0.16074810
   0.89820603  0.40363151  0.66074810
   0.89820603  0.90363151  0.16074810
   0.89820603  0.90363151  0.66074810
   0.39624536  0.15945691  0.40504723
   0.39624536  0.15945691  0.90504723
   0.39624536  0.65945691  0.40504723
   0.39624536  0.65945691  0.90504723
   0.89624536  0.15945691  0.40504723
   0.89624536  0.15945691  0.90504723
   0.89624536  0.65945691  0.40504723
   0.89624536  0.65945691  0.90504723
   0.34304155  0.09678517  0.09109860
   0.34304155  0.09678517  0.59109860
   0.34304155  0.59678517  0.09109860
   0.34304155  0.59678517  0.59109860
   0.84304155  0.09678517  0.09109860
   0.84304155  0.09678517  0.59109860
   0.84304155  0.59678517  0.09109860
   0.84304155  0.59678517  0.59109860
   0.10247692  0.09467150  0.34051749
   0.10247692  0.09467150  0.84051749
   0.10247692  0.59467150  0.34051749
   0.10247692  0.59467150  0.84051749
   0.60247692  0.09467150  0.34051749
   0.60247692  0.09467150  0.84051749
   0.60247692  0.59467150  0.34051749
   0.60247692  0.59467150  0.84051749
   0.10485733  0.34296445  0.09332980
   0.10485733  0.34296445  0.59332980
   0.10485733  0.84296445  0.09332980
   0.10485733  0.84296445  0.59332980
   0.60485733  0.34296445  0.09332980
   0.60485733  0.34296445  0.59332980
   0.60485733  0.84296445  0.09332980
   0.60485733  0.84296445  0.59332980
   0.49271854  0.49784683  0.33719227
   0.49271854  0.49784683  0.83719227
   0.49271854  0.99784683  0.33719227
   0.49271854  0.99784683  0.83719227
   0.99271854  0.49784683  0.33719227
   0.99271854  0.49784683  0.83719227
   0.99271854  0.99784683  0.33719227
   0.99271854  0.99784683  0.83719227
   0.49955195  0.33599933  0.49493564
   0.49955195  0.33599933  0.99493564
   0.49955195  0.83599933  0.49493564
   0.49955195  0.83599933  0.99493564
   0.99955195  0.33599933  0.49493564
   0.99955195  0.33599933  0.99493564
   0.99955195  0.83599933  0.49493564
   0.99955195  0.83599933  0.99493564
   0.17478754 -0.00263081  0.00387601
   0.17478754 -0.00263081  0.50387601
   0.17478754  0.49736919  0.00387601
   0.17478754  0.49736919  0.50387601
   0.67478754 -0.00263081  0.00387601
   0.67478754 -0.00263081  0.50387601
   0.67478754  0.49736919  0.00387601
   0.67478754  0.49736919  0.50387601
   0.00587848  0.00147346  0.16471968
   0.00587848  0.00147346  0.66471968
   0.00587848  0.50147346  0.16471968
   0.00587848  0.50147346  0.66471968
   0.50587848  0.00147346  0.16471968
   0.50587848  0.00147346  0.66471968
   0.50587848  0.50147346  0.16471968
   0.50587848  0.50147346  0.66471968
  -0.00358879  0.16722341  0.00527019
  -0.00358879  0.16722341  0.50527019
  -0.00358879  0.66722341  0.00527019
  -0.00358879  0.66722341  0.50527019
   0.49641121  0.16722341  0.00527019
   0.49641121  0.16722341  0.50527019
   0.49641121  0.66722341  0.00527019
   0.49641121  0.66722341  0.50527019
   0.24829033  0.25024463  0.24857546
   0.24829033  0.25024463  0.74857546
   0.24829033  0.75024463  0.24857546
   0.24829033  0.75024463  0.74857546
   0.74829033  0.25024463  0.24857546
   0.74829033  0.25024463  0.74857546
   0.74829033  0.75024463  0.24857546
   0.74829033  0.75024463  0.74857546
   0.33465926  0.50263305  0.49774372
   0.33465926  0.50263305  0.99774372
   0.33465926  0.00263305  0.49774372
   0.33465926  0.00263305  0.99774372
   0.83465926  0.50263305  0.49774372
   0.83465926  0.50263305  0.99774372
   0.83465926  0.00263305  0.49774372
   0.83465926  0.00263305  0.99774372
   0.31313506  0.30929826  0.29292479
   0.31313506  0.30929826  0.79292479
   0.31313506  0.80929826  0.29292479
   0.31313506  0.80929826  0.79292479
   0.81313506  0.30929826  0.29292479
   0.81313506  0.30929826  0.79292479
   0.81313506  0.80929826  0.29292479
   0.81313506  0.80929826  0.79292479
   0.18277306  0.18737948  0.20515037
   0.18277306  0.18737948  0.70515037
   0.18277306  0.68737948  0.20515037
   0.18277306  0.68737948  0.70515037
   0.68277306  0.18737948  0.20515037
   0.68277306  0.18737948  0.70515037
   0.68277306  0.68737948  0.20515037
   0.68277306  0.68737948  0.70515037
unknown system                          
            1
     9.205540   -0.423032    4.138783
     3.644867    8.910139    4.255633
    -0.061007    0.090984   10.316708
   B    C 
    96    24
Direct configuration=     3
   0.15740817  0.40341706  0.40648267
   0.15740817  0.40341706  0.90648267
   0.15740817  0.90341706  0.40648267
   0.15740817  0.90341706  0.90648267
   0.65740817  0.40341706  0.40648267
   0.65740817  0.40341706  0.90648267
   0.65740817  0.90341706  0.40648267
   0.65740817  0.90341706  0.90648267
   0.39966527  0.40318429  0.15910748
   0.39966527  0.40318429  0.65910748
   0.39966527  0.90318429  0.15910748
   0.39966527  0.90318429  0.65910748
   0.89966527  0.40318429  0.15910748
   0.89966527  0.40318429  0.65910748
   0.89966527  0.90318429  0.15910748
   0.89966527  0.90318429  0.65910748
   0.39853884  0.15865407  0.40378496
   0.39853884  0.15865407  0.90378496
   0.39853884  0.65865407  0.40378496
   0.39853884  0.65865407  0.90378496
   0.89853884  0.15865407  0.40378496
   0.89853884  0.15865407  0.90378496
   0.89853884  0.65865407  0.40378496
   0.89853884  0.65865407  0.90378496
   0.34230727  0.09664605  0.09369248
   0.34230727  0.09664605  0.59369248
   0.34230727  0.59664605  0.09369248
   0.34230727  0.59664605  0.59369248
   0.84230727  0.09664605  0.09369248
   0.84230727  0.09664605  0.59369248
   0.84230727  0.59664605  0.09369248
   0.84230727  0.59664605  0.59369248
   0.10089640  0.09551026  0.34199055
   0.10089640  0.09551026  0.84199055
   0.10089640  0.59551026  0.34199055
   0.10089640  0.59551026  0.84199055
   0.60089640  0.09551026  0.34199055
   0.60089640  0.09551026  0.84199055
   0.60089640  0.59551026  0.34199055
   0.60089640  0.59551026  0.84199055
   0.10216319  0.34303685  0.09499518
   0.10216319  0.34303685  0.59499518
   0.10216319  0.84303685  0.09499518
   0.10216319  0.84303685  0.59499518
   0.60216319  0.34303685  0.09499518
   0.60216319  0.34303685  0.59499518
   0.60216319  0.84303685  0.09499518
   0.60216319  0.84303685  0.59499518
   0.49346668  0.49771433  0.33700219
   0.49346668  0.49771433  0.83700219
   0.49346668  0.99771433  0.33700219
   0.49346668  0.99771433  0.83700219
   0.99346668  0.49771433  0.33700219
   0.99346668  0.49771433  0.83700219
   0.99346668  0.99771433  0.33700219
   0.99346668  0.99771433  0.83700219
   0.49732443  0.33614397  0.49610779
   0.49732443  0.33614397  0.99610779
   0.49732443  0.83614397  0.49610779
   0.49732443  0.83614397  0.99610779
   0.99732443  0.33614397  0.49610779
   0.99732443  0.33614397  0.99610779
   0.99732443  0.83614397  0.49610779
   0.99732443  0.83614397  0.99610779
   0.17323943 -0.00020057  0.00338196
   0.17323943 -0.00020057  0.50338196
   0.17323943  0.49979943  0.00338196
   0.17323943  0.49979943  0.50338196
   0.67323943 -0.00020057  0.00338196
   0.67323943 -0.00020057  0.50338196
   0.67323943  0.49979943  0.00338196
   0.67323943  0.49979943  0.50338196
   0.00486259  0.00196663  0.16455266
   0.00486259  0.00196663  0.66455266
   0.00486259  0.50196663  0.16455266
   0.00486259  0.50196663  0.66455266
   0.50486259  0.00196663  0.16455266
   0.50486259  0.00196663  0.66455266
   0.50486259  0.50196663  0.16455266
   0.50486259  0.50196663  0.66455266
  -0.00057560  0.16620238  0.00409383
  -0.00057560  0.16620238  0.50409383
  -0.00057560  0.66620238  0.00409383
  -0.00057560  0.66620238  0.50409383
   0.49942440  0.16620238  0.00409383
   0.49942440  0.16620238  0.50409383
   0.49942440  0.66620238  0.00409383
   0.49942440  0.66620238  0.50409383
   0.24811012  0.24965449  0.24880137
   0.24811012  0.24965449  0.74880137
   0.24811012  0.74965449  0.24880137
   0.24811012  0.74965449  0.74880137
   0.74811012  0.24965449  0.24880137
   0.74811012  0.24965449  0.74880137
   0.74811012  0.74965449  0.24880137
   0.74811012  0.74965449  0.74880137
   0.33610083  0.50059882  0.49788136
   0.33610083  0.50059882  0.99788136
   0.33610083  0.00059882  0.49788136
   0.33610083  0.00059882  0.99788136
   0.83610083  0.50059882  0.49788136
   0.83610083  0.50059882  0.99788136
   0.83610083  0.00059882  0.49788136
   0.83610083  0.00059882  0.99788136
   0.31005504  0.30902561  0.30062920
   0.31005504  0.30902561  0.80062920
   0.31005504  0.80902561  0.30062920
   0.31005504  0.80902561  0.80062920
   0.81005504  0.30902561  0.30062920
   0.81005504  0.30902561  0.80062920
   0.81005504  0.80902561  0.30062920
   0.81005504  0.80902561  0.80062920
   0.18643732  0.18844677  0.19749731
   0.18643732  0.18844677  0.69749731
   0.18643732  0.68844677  0.19749731
   0.18643732  0.68844677  0.69749731
   0.68643732  0.18844677  0.19749731
   0.68643732  0.18844677  0.69749731
   0.68643732  0.68844677  0.19749731
   0.68643732  0.68844677  0.69749731
unknown system                          
            1
     9.195995   -0.702858    4.183905
     3.381580    8.838769    4.269514
    -0.017052    0.086228   10.324917
   B    C 
    96    24
Direct configuration=     4
   0.16210593  0.40045047  0.40113366
   0.16210593  0.40045047  0.90113366
   0.16210593  0.90045047  0.40113366
   0.16210593  0.90045047  0.90113366
   0.66210593  0.40045047  0.40113366
   0.66210593  0.40045047  0.90113366
   0.66210593  0.90045047  0.40113366
   0.66210593  0.90045047  0.90113366
   0.40419094  0.40440064  0.15516990
   0.40419094  0.40440064  0.65516990
   0.40419094  0.90440064  0.15516990
   0.40419094  0.90440064  0.65516990
   0.90419094  0.40440064  0.15516990
   0.90419094  0.40440064  0.65516990
   0.90419094  0.90440064  0.15516990
   0.90419094  0.90440064  0.65516990
   0.39971847  0.15879767  0.40027988
   0.39971847  0.15879767  0.90027988
   0.39971847  0.65879767  0.40027988
   0.39971847  0.65879767  0.90027988
   0.89971847  0.15879767  0.40027988
   0.89971847  0.15879767  0.90027988
   0.89971847  0.65879767  0.40027988
   0.89971847  0.65879767  0.90027988
   0.33663879  0.09973963  0.09926835
   0.33663879  0.09973963  0.59926835
   0.33663879  0.59973963  0.09926835
   0.33663879  0.59973963  0.59926835
   0.83663879  0.09973963  0.09926835
   0.83663879  0.09973963  0.59926835
   0.83663879  0.59973963  0.09926835
   0.83663879  0.59973963  0.59926835
   0.09600357  0.09407373  0.34675195
   0.09600357  0.09407373  0.84675195
   0.09600357  0.59407373  0.34675195
   0.09600357  0.59407373  0.84675195
   0.59600357  0.09407373  0.34675195
   0.59600357  0.09407373  0.84675195
   0.59600357  0.59407373  0.34675195
   0.59600357  0.59407373  0.84675195
   0.10131128  0.34246817  0.09870536
   0.10131128  0.34246817  0.59870536
   0.10131128  0.84246817  0.09870536
   0.10131128  0.84246817  0.59870536
   0.60131128  0.34246817  0.09870536
   0.60131128  0.34246817  0.59870536
   0.60131128  0.84246817  0.09870536
   0.60131128  0.84246817  0.59870536
   0.49368470  0.49744527  0.33818182
   0.49368470  0.49744527  0.83818182
   0.49368470  0.99744527  0.33818182
   0.49368470  0.99744527  0.83818182
   0.99368470  0.49744527  0.33818182
   0.99368470  0.49744527  0.83818182
   0.99368470  0.99744527  0.33818182
   0.99368470  0.99744527  0.83818182
   0.49672476  0.33802990  0.49584386
   0.49672476  0.33802990  0.99584386
   0.49672476  0.83802990  0.49584386
   0.49672476  0.83802990  0.99584386
   0.99672476  0.33802990  0.49584386
   0.99672476  0.33802990  0.99584386
   0.99672476  0.83802990  0.49584386
   0.99672476  0.83802990  0.99584386
   0.17013470  0.00076304  0.00428978
   0.17013470  0.00076304  0.50428978
   0.17013470  0.50076304  0.00428978
   0.17013470  0.50076304  0.50428978
   0.67013470  0.00076304  0.00428978
   0.67013470  0.00076304  0.50428978
   0.67013470  0.50076304  0.00428978
   0.67013470  0.50076304  0.50428978
   0.00432286  0.00252226  0.16374853
   0.00432286  0.00252226  0.66374853
   0.00432286  0.50252226  0.16374853
   0.00432286  0.50252226  0.66374853
   0.50432286  0.00252226  0.16374853
   0.50432286  0.00252226  0.66374853
   0.50432286  0.50252226  0.16374853
   0.50432286  0.50252226  0.66374853
   0.00068361  0.16393542  0.00458278
   0.00068361  0.16393542  0.50458278
   0.00068361  0.66393542  0.00458278
   0.00068361  0.66393542  0.50458278
   0.50068361  0.16393542  0.00458278
   0.50068361  0.16393542  0.50458278
   0.50068361  0.66393542  0.00458278
   0.50068361  0.66393542  0.50458278
   0.24699960  0.24927500  0.24758858
   0.24699960  0.24927500  0.74758858
   0.24699960  0.74927500  0.24758858
   0.24699960  0.74927500  0.74758858
   0.74699960  0.24927500  0.24758858
   0.74699960  0.24927500  0.74758858
   0.74699960  0.74927500  0.24758858
   0.74699960  0.74927500  0.74758858
   0.33932397  0.50021985  0.49701900
   0.33932397  0.50021985  0.99701900
   0.33932397  0.00021985  0.49701900
   0.33932397  0.00021985  0.99701900
   0.83932397  0.50021985  0.49701900
   0.83932397  0.50021985  0.99701900
   0.83932397  0.00021985  0.49701900
   0.83932397  0.00021985  0.99701900
   0.30825739  0.31377061  0.30547197
   0.30825739  0.31377061  0.80547197
   0.30825739  0.81377061  0.30547197
   0.30825739  0.81377061  0.80547197
   0.80825739  0.31377061  0.30547197
   0.80825739  0.31377061  0.80547197
   0.80825739  0.81377061  0.30547197
   0.80825739  0.81377061  0.80547197
   0.18989943  0.18410935  0.19196558
   0.18989943  0.18410935  0.69196558
   0.18989943  0.68410935  0.19196558
   0.18989943  0.68410935  0.69196558
   0.68989943  0.18410935  0.19196558
   0.68989943  0.18410935  0.69196558
   0.68989943  0.68410935  0.19196558
   0.68989943  0.68410935  0.69196558
unknown system                          
            1
     9.198690   -0.604679    4.167785
     3.473669    8.863170    4.264344
    -0.032465    0.087890   10.321306
   B    C 
    96    24
Direct configuration=     5
   0.16049262  0.40145054  0.40301637
   0.16049262  0.40145054  0.90301637
   0.16049262  0.90145054  0.40301637
   0.16049262  0.90145054  0.90301637
   0.66049262  0.40145054  0.40301637
   0.66049262  0.40145054  0.90301637
   0.66049262  0.90145054  0.40301637
   0.66049262  0.90145054  0.90301637
   0.40260328  0.40392086  0.15657931
   0.40260328  0.40392086  0.65657931
   0.40260328  0.90392086  0.15657931
   0.40260328  0.90392086  0.65657931
   0.90260328  0.40392086  0.15657931
   0.90260328  0.40392086  0.65657931
   0.90260328  0.90392086  0.15657931
   0.90260328  0.90392086  0.65657931
   0.39930195  0.15873417  0.40151638
   0.39930195  0.15873417  0.90151638
   0.39930195  0.65873417  0.40151638
   0.39930195  0.65873417  0.90151638
   0.89930195  0.15873417  0.40151638
   0.89930195  0.15873417  0.90151638
   0.89930195  0.65873417  0.40151638
   0.89930195  0.65873417  0.90151638
   0.33858821  0.09870511  0.09730230
   0.33858821  0.09870511  0.59730230
   0.33858821  0.59870511  0.09730230
   0.33858821  0.59870511  0.59730230
   0.83858821  0.09870511  0.09730230
   0.83858821  0.09870511  0.59730230
   0.83858821  0.59870511  0.09730230
   0.83858821  0.59870511  0.59730230
   0.09772194  0.09463544  0.34505048
   0.09772194  0.09463544  0.84505048
   0.09772194  0.59463544  0.34505048
   0.09772194  0.59463544  0.84505048
   0.59772194  0.09463544  0.34505048
   0.59772194  0.09463544  0.84505048
   0.59772194  0.59463544  0.34505048
   0.59772194  0.59463544  0.84505048
   0.10161813  0.34267866  0.09739603
   0.10161813  0.34267866  0.59739603
   0.10161813  0.84267866  0.09739603
   0.10161813  0.84267866  0.59739603
   0.60161813  0.34267866  0.09739603
   0.60161813  0.34267866  0.59739603
   0.60161813  0.84267866  0.09739603
   0.60161813  0.84267866  0.59739603
   0.49361339  0.49753815  0.33776726
   0.49361339  0.49753815  0.83776726
   0.49361339  0.99753815  0.33776726
   0.49361339  0.99753815  0.83776726
   0.99361339  0.49753815  0.33776726
   0.99361339  0.49753815  0.83776726
   0.99361339  0.99753815  0.33776726
   0.99361339  0.99753815  0.83776726
   0.49691597  0.33736841  0.49594412
   0.49691597  0.33736841  0.99594412
   0.49691597  0.83736841  0.49594412
   0.49691597  0.83736841  0.99594412
   0.99691597  0.33736841  0.49594412
   0.99691597  0.33736841  0.99594412
   0.99691597  0.83736841  0.49594412
   0.99691597  0.83736841  0.99594412
   0.17120517  0.00045538  0.00396228
   0.17120517  0.00045538  0.50396228
   0.17120517  0.50045538  0.00396228
   0.17120517  0.50045538  0.50396228
   0.67120517  0.00045538  0.00396228
   0.67120517  0.00045538  0.50396228
   0.67120517  0.50045538  0.00396228
   0.67120517  0.50045538  0.50396228
   0.00450394  0.00233135  0.16403139
   0.00450394  0.00233135  0.66403139
   0.00450394  0.50233135  0.16403139
   0.00450394  0.50233135  0.66403139
   0.50450394  0.00233135  0.16403139
   0.50450394  0.00233135  0.66403139
   0.50450394  0.50233135  0.16403139
   0.50450394  0.50233135  0.66403139
   0.00026725  0.16472470  0.00440445
   0.00026725  0.16472470  0.50440445
   0.00026725  0.66472470  0.00440445
   0.00026725  0.66472470  0.50440445
   0.50026725  0.16472470  0.00440445
   0.50026725  0.16472470  0.50440445
   0.50026725  0.66472470  0.00440445
   0.50026725  0.66472470  0.50440445
   0.24738620  0.24942153  0.24800716
   0.24738620  0.24942153  0.74800716
   0.24738620  0.74942153  0.24800716
   0.24738620  0.74942153  0.74800716
   0.74738620  0.24942153  0.24800716
   0.74738620  0.24942153  0.74800716
   0.74738620  0.74942153  0.24800716
   0.74738620  0.74942153  0.74800716
   0.33820740  0.50031914  0.49733428
   0.33820740  0.50031914  0.99733428
   0.33820740  0.00031914  0.49733428
   0.33820740  0.00031914  0.99733428
   0.83820740  0.50031914  0.49733428
   0.83820740  0.50031914  0.99733428
   0.83820740  0.00031914  0.49733428
   0.83820740  0.00031914  0.99733428
   0.30884803  0.31210916  0.30378990
   0.30884803  0.31210916  0.80378990
   0.30884803  0.81210916  0.30378990
   0.30884803  0.81210916  0.80378990
   0.80884803  0.31210916  0.30378990
   0.80884803  0.31210916  0.80378990
   0.80884803  0.81210916  0.30378990
   0.80884803  0.81210916  0.80378990
   0.18872652  0.18560840  0.19389929
   0.18872652  0.18560840  0.69389929
   0.18872652  0.68560840  0.19389929
   0.18872652  0.68560840  0.69389929
   0.68872652  0.18560840  0.19389929
   0.68872652  0.18560840  0.69389929
   0.68872652  0.68560840  0.19389929
   0.68872652  0.68560840  0.69389929
unknown system                          
            1
     9.189005   -0.639656    4.146916
     3.426027    8.841364    4.262526
    -0.061314    0.091346   10.333138
   B    C 
    96    24
Direct configuration=     6
   0.15948736  0.40267390  0.40275642
   0.15948736  0.40267390  0.90275642
   0.15948736  0.90267390  0.40275642
   0.15948736  0.90267390  0.90275642
   0.65948736  0.40267390  0.40275642
   0.65948736  0.40267390  0.90275642
   0.65948736  0.90267390  0.40275642
   0.65948736  0.90267390  0.90275642
   0.40400804  0.40426675  0.15501239
   0.40400804  0.40426675  0.65501239
   0.40400804  0.90426675  0.15501239
   0.40400804  0.90426675  0.65501239
   0.90400804  0.40426675  0.15501239
   0.90400804  0.40426675  0.65501239
   0.90400804  0.90426675  0.15501239
   0.90400804  0.90426675  0.65501239
   0.40037702  0.15850856  0.40086559
   0.40037702  0.15850856  0.90086559
   0.40037702  0.65850856  0.40086559
   0.40037702  0.65850856  0.90086559
   0.90037702  0.15850856  0.40086559
   0.90037702  0.15850856  0.90086559
   0.90037702  0.65850856  0.40086559
   0.90037702  0.65850856  0.90086559
   0.34014096  0.09741627  0.09759341
   0.34014096  0.09741627  0.59759341
   0.34014096  0.59741627  0.09759341
   0.34014096  0.59741627  0.59759341
   0.84014096  0.09741627  0.09759341
   0.84014096  0.09741627  0.59759341
   0.84014096  0.59741627  0.09759341
   0.84014096  0.59741627  0.59759341
   0.09656164  0.09494017  0.34635060
   0.09656164  0.09494017  0.84635060
   0.09656164  0.59494017  0.34635060
   0.09656164  0.59494017  0.84635060
   0.59656164  0.09494017  0.34635060
   0.59656164  0.09494017  0.84635060
   0.59656164  0.59494017  0.34635060
   0.59656164  0.59494017  0.84635060
   0.10041483  0.34267290  0.09824043
   0.10041483  0.34267290  0.59824043
   0.10041483  0.84267290  0.09824043
   0.10041483  0.84267290  0.59824043
   0.60041483  0.34267290  0.09824043
   0.60041483  0.34267290  0.59824043
   0.60041483  0.84267290  0.09824043
   0.60041483  0.84267290  0.59824043
   0.49413709  0.49740245  0.33709639
   0.49413709  0.49740245  0.83709639
   0.49413709  0.99740245  0.33709639
   0.49413709  0.99740245  0.83709639
   0.99413709  0.49740245  0.33709639
   0.99413709  0.49740245  0.83709639
   0.99413709  0.99740245  0.33709639
   0.99413709  0.99740245  0.83709639
   0.49604400  0.33672576  0.49685823
   0.49604400  0.33672576  0.99685823
   0.49604400  0.83672576  0.49685823
   0.49604400  0.83672576  0.99685823
   0.99604400  0.33672576  0.49685823
   0.99604400  0.33672576  0.99685823
   0.99604400  0.83672576  0.49685823
   0.99604400  0.83672576  0.99685823
   0.17048744  0.00188752  0.00396970
   0.17048744  0.00188752  0.50396970
   0.17048744  0.50188752  0.00396970
   0.17048744  0.50188752  0.50396970
   0.67048744  0.00188752  0.00396970
   0.67048744  0.00188752  0.50396970
   0.67048744  0.50188752  0.00396970
   0.67048744  0.50188752  0.50396970
   0.00360788  0.00306231  0.16480552
   0.00360788  0.00306231  0.66480552
   0.00360788  0.50306231  0.16480552
   0.00360788  0.50306231  0.66480552
   0.50360788  0.00306231  0.16480552
   0.50360788  0.00306231  0.66480552
   0.50360788  0.50306231  0.16480552
   0.50360788  0.50306231  0.66480552
   0.00199107  0.16452940  0.00386085
   0.00199107  0.16452940  0.50386085
   0.00199107  0.66452940  0.00386085
   0.00199107  0.66452940  0.50386085
   0.50199107  0.16452940  0.00386085
   0.50199107  0.16452940  0.50386085
   0.50199107  0.66452940  0.00386085
   0.50199107  0.66452940  0.50386085
   0.24833951  0.25083068  0.24886922
   0.24833951  0.25083068  0.74886922
   0.24833951  0.75083068  0.24886922
   0.24833951  0.75083068  0.74886922
   0.74833951  0.25083068  0.24886922
   0.74833951  0.25083068  0.74886922
   0.74833951  0.75083068  0.24886922
   0.74833951  0.75083068  0.74886922
   0.33889105  0.49930245  0.49711966
   0.33889105  0.49930245  0.99711966
   0.33889105 -0.00069755  0.49711966
   0.33889105 -0.00069755  0.99711966
   0.83889105  0.49930245  0.49711966
   0.83889105  0.49930245  0.99711966
   0.83889105 -0.00069755  0.49711966
   0.83889105 -0.00069755  0.99711966
   0.30655492  0.31013425  0.30596281
   0.30655492  0.31013425  0.80596281
   0.30655492  0.81013425  0.30596281
   0.30655492  0.81013425  0.80596281
   0.80655492  0.31013425  0.30596281
   0.80655492  0.31013425  0.80596281
   0.80655492  0.81013425  0.30596281
   0.80655492  0.81013425  0.80596281
   0.18895720  0.18564763  0.19063979
   0.18895720  0.18564763  0.69063979
   0.18895720  0.68564763  0.19063979
   0.18895720  0.68564763  0.69063979
   0.68895720  0.18564763  0.19063979
   0.68895720  0.18564763  0.69063979
   0.68895720  0.68564763  0.19063979
   0.68895720  0.68564763  0.69063979
unknown system                          
            1
     9.193987   -0.621594    4.157683
     3.450620    8.852605    4.263456
    -0.046417    0.089561   10.327007
   B    C 
    96    24
Direct configuration=     7
   0.16000404  0.40204246  0.40289229
   0.16000404  0.40204246  0.90289229
   0.16000404  0.90204246  0.40289229
   0.16000404  0.90204246  0.90289229
   0.66000404  0.40204246  0.40289229
   0.66000404  0.40204246  0.90289229
   0.66000404  0.90204246  0.40289229
   0.66000404  0.90204246  0.90289229
   0.40328481  0.40408469  0.15581964
   0.40328481  0.40408469  0.65581964
   0.40328481  0.90408469  0.15581964
   0.40328481  0.90408469  0.65581964
   0.90328481  0.40408469  0.15581964
   0.90328481  0.40408469  0.65581964
   0.90328481  0.90408469  0.15581964
   0.90328481  0.90408469  0.65581964
   0.39982367  0.15862316  0.40120022
   0.39982367  0.15862316  0.90120022
   0.39982367  0.65862316  0.40120022
   0.39982367  0.65862316  0.90120022
   0.89982367  0.15862316  0.40120022
   0.89982367  0.15862316  0.90120022
   0.89982367  0.65862316  0.40120022