# LAMMPS data file written by OVITO Basic 3.2.1
45 atoms
2 atom types
0.0 5.6459 xlo xhi
0.0 4.889493 ylo yhi
0.0 12.094612 zlo zhi
-2.82295 0.0 0.0 xy xz yz

Masses

1 10.911  # B
2 12.011  # C

Atoms  # atomic

1 1 1.40543671 2.4482327085 3.7152833872
2 1 -2.82295e-06 4.8825254725 3.7152833872
3 1 -1.4054423559 2.4482327085 3.7152833872
4 1 -1.4054423559 4.0710945512 0.3162620092
5 1 -2.8229499999e-06 1.6368017872 0.3162620092
6 1 1.40543671 4.0710945512 0.3162620092
7 1 0.9129476759 2.7325713949 6.684643674
8 1 -2.8229499995e-06 4.3138480996 6.684643674
9 1 -0.9129533218 2.7325713949 6.684643674
10 1 -0.9129533218 3.7867558647 9.4415137225
11 1 -2.82295e-06 2.20547916 9.4415137225
12 1 0.9129476759 3.7867558647 9.4415137225
13 1 -1.4175104671 4.0780620787 7.746816689
14 1 0.0 1.6228618426 7.746816689
15 1 1.4175104671 4.0780620787 7.746816689
16 1 4.2404604671 0.8114309213 4.347795311
17 1 2.82295 3.2666311574 4.347795311
18 1 1.4054395329 0.8114309213 4.347795311
19 1 -1.9099995012 4.3624007651 10.7161769757
20 1 0.0 1.0541844698 10.7161769757
21 1 1.9099995012 4.3624007651 10.7161769757
22 1 4.7329495012 0.5270922349 1.3784350243
23 1 2.82295 3.8353085302 1.3784350243
24 1 0.9129504989 0.5270922349 1.3784350243
25 1 4.2283923558 0.8183984488 11.7783499908
26 1 2.822952823 3.2526912128 11.7783499908
27 1 1.41751329 0.8183984488 11.7783499908
28 1 1.4175132901 2.4412602915 8.3793286128
29 1 2.822952823 0.0069675275 8.3793286128
30 1 4.2283923558 2.4412602915 8.3793286128
31 1 3.7359033218 1.1027371353 2.6530982775
32 1 2.822952823 2.68401384 2.6530982775
33 1 1.9100023241 1.1027371353 2.6530982775
34 1 1.9100023241 2.1569216051 5.409968326
35 1 2.8229528229 0.5756449004 5.409968326
36 1 3.7359033218 2.1569216051 5.409968326
37 2 -2.82295e-06 3.2596636298 3.3484658999
38 2 -2.82295e-06 3.2596636298 0.6830794965
39 2 -2.82295e-06 3.2596636298 2.0157726982
40 2 0.0 0.0 7.3799992017
41 2 0.0 0.0 4.7146127983
42 2 0.0 0.0 6.047306
43 2 2.822952823 1.6298293702 11.4115325035
44 2 2.822952823 1.6298293702 8.7461461001
45 2 2.822952823 1.6298293702 10.0788393018
