 112 112   0   0
  0.7777803E+01  0.1036269E-08  0.1036269E-08  0.1036269E-08  0.5000000E-15
    300.0000000000000     
  CAR 
 unknown system                          
     14.24176438    -12.71263560  301      4.17155082      1.00000000
    -12.713  0.0000E+00  0.0000E+00
    -12.623  0.0000E+00  0.0000E+00
    -12.533  0.0000E+00  0.0000E+00
    -12.443  0.0000E+00  0.0000E+00
    -12.353  0.0000E+00  0.0000E+00
    -12.263  0.0000E+00  0.0000E+00
    -12.174  0.0000E+00  0.0000E+00
    -12.084  0.0000E+00  0.0000E+00
    -11.994  0.0000E+00  0.0000E+00
    -11.904  0.0000E+00  0.0000E+00
    -11.814  0.0000E+00  0.0000E+00
    -11.724  0.0000E+00  0.0000E+00
    -11.634  0.0000E+00  0.0000E+00
    -11.545  0.0000E+00  0.0000E+00
    -11.455  0.0000E+00  0.0000E+00
    -11.365  0.0000E+00  0.0000E+00
    -11.275  0.0000E+00  0.0000E+00
    -11.185  0.0000E+00  0.0000E+00
    -11.095  0.0000E+00  0.0000E+00
    -11.006  0.0000E+00  0.0000E+00
    -10.916  0.0000E+00  0.0000E+00
    -10.826  0.0000E+00  0.0000E+00
    -10.736  0.0000E+00  0.0000E+00
    -10.646  0.7167E+00  0.1586E-01
    -10.556  0.3997E+01  0.2076E+00
    -10.466  0.1240E+02  0.8454E+00
    -10.377  0.2177E+02  0.2497E+01
    -10.287  0.4985E+01  0.3807E+01
    -10.197  0.3238E+00  0.3996E+01
    -10.107  0.9277E+01  0.4190E+01
    -10.017  0.2888E+02  0.6122E+01
     -9.927  0.3290E+02  0.8830E+01
     -9.837  0.1645E+02  0.1130E+02
     -9.748  0.2626E+02  0.1293E+02
     -9.658  0.1776E+02  0.1521E+02
     -9.568  0.1397E+01  0.1588E+02
     -9.478  0.6168E+00  0.1599E+02
     -9.388  0.0000E+00  0.1600E+02
     -9.298  0.0000E+00  0.1600E+02
     -9.209  0.0000E+00  0.1600E+02
     -9.119  0.0000E+00  0.1600E+02
     -9.029  0.0000E+00  0.1600E+02
     -8.939  0.8352E-02  0.1600E+02
     -8.849  0.4441E+00  0.1601E+02
     -8.759  0.2814E+01  0.1614E+02
     -8.669  0.8154E+01  0.1661E+02
     -8.580  0.1723E+02  0.1771E+02
     -8.490  0.3094E+02  0.1984E+02
     -8.400  0.3053E+02  0.2279E+02
     -8.310  0.9884E+01  0.2463E+02
     -8.220  0.7588E+01  0.2529E+02
     -8.130  0.1024E+02  0.2608E+02
     -8.041  0.1449E+02  0.2720E+02
     -7.951  0.1628E+02  0.2858E+02
     -7.861  0.1951E+02  0.3006E+02
     -7.771  0.3435E+02  0.3231E+02
     -7.681  0.3049E+02  0.3511E+02
     -7.591  0.1872E+02  0.3715E+02
     -7.501  0.1195E+02  0.3851E+02
     -7.412  0.6815E+01  0.3934E+02
     -7.322  0.5235E+01  0.3983E+02
     -7.232  0.1282E+02  0.4056E+02
     -7.142  0.2127E+02  0.4215E+02
     -7.052  0.1728E+02  0.4401E+02
     -6.962  0.2009E+02  0.4550E+02
     -6.873  0.1205E+02  0.4698E+02
     -6.783  0.4883E+01  0.4770E+02
     -6.693  0.1257E+01  0.4796E+02
     -6.603  0.1310E+01  0.4802E+02
     -6.513  0.1237E+02  0.4855E+02
     -6.423  0.1993E+02  0.5013E+02
     -6.333  0.1518E+02  0.5174E+02
     -6.244  0.3164E+02  0.5339E+02
     -6.154  0.2197E+02  0.5588E+02
     -6.064  0.2334E+02  0.5732E+02
     -5.974  0.2479E+02  0.5956E+02
     -5.884  0.3319E+02  0.6200E+02
     -5.794  0.2510E+02  0.6472E+02
     -5.704  0.2837E+02  0.6701E+02
     -5.615  0.1943E+02  0.6920E+02
     -5.525  0.2337E+02  0.7096E+02
     -5.435  0.2842E+02  0.7346E+02
     -5.345  0.3164E+02  0.7612E+02
     -5.255  0.1956E+02  0.7821E+02
     -5.165  0.2135E+02  0.8009E+02
     -5.076  0.1216E+02  0.8148E+02
     -4.986  0.1413E+02  0.8260E+02
     -4.896  0.9251E+01  0.8369E+02
     -4.806  0.1419E+02  0.8456E+02
     -4.716  0.1467E+02  0.8575E+02
     -4.626  0.2674E+02  0.8756E+02
     -4.536  0.2695E+02  0.8999E+02
     -4.447  0.1985E+02  0.9209E+02
     -4.357  0.1455E+02  0.9361E+02
     -4.267  0.1007E+02  0.9472E+02
     -4.177  0.5806E+01  0.9542E+02
     -4.087  0.2783E+01  0.9580E+02
     -3.997  0.9568E+00  0.9596E+02
     -3.908  0.1120E+00  0.9600E+02
     -3.818  0.2092E-01  0.9600E+02
     -3.728  0.5823E+00  0.9602E+02
     -3.638  0.3041E+01  0.9616E+02
     -3.548  0.7944E+01  0.9664E+02
     -3.458  0.1395E+02  0.9762E+02
     -3.368  0.2108E+02  0.9918E+02
     -3.279  0.2747E+02  0.1014E+03
     -3.189  0.2008E+02  0.1036E+03
     -3.099  0.1077E+02  0.1050E+03
     -3.009  0.1892E+02  0.1060E+03
     -2.919  0.2206E+02  0.1079E+03
     -2.829  0.2279E+02  0.1097E+03
     -2.740  0.2505E+02  0.1118E+03
     -2.650  0.2686E+02  0.1142E+03
     -2.560  0.2600E+02  0.1165E+03
     -2.470  0.2033E+02  0.1187E+03
     -2.380  0.2525E+02  0.1205E+03
     -2.290  0.3168E+02  0.1231E+03
     -2.200  0.2110E+02  0.1255E+03
     -2.111  0.2840E+02  0.1274E+03
     -2.021  0.4215E+02  0.1305E+03
     -1.931  0.4728E+02  0.1343E+03
     -1.841  0.5121E+02  0.1388E+03
     -1.751  0.3201E+02  0.1424E+03
     -1.661  0.3700E+02  0.1455E+03
     -1.571  0.1191E+02  0.1477E+03
     -1.482  0.2096E+02  0.1490E+03
     -1.392  0.3600E+02  0.1516E+03
     -1.302  0.2889E+02  0.1546E+03
     -1.212  0.3297E+02  0.1573E+03
     -1.122  0.2320E+02  0.1598E+03
     -1.032  0.2393E+02  0.1617E+03
     -0.943  0.3817E+02  0.1645E+03
     -0.853  0.4648E+02  0.1684E+03
     -0.763  0.3892E+02  0.1723E+03
     -0.673  0.3422E+02  0.1754E+03
     -0.583  0.2814E+02  0.1785E+03
     -0.493  0.8532E+01  0.1800E+03
     -0.403  0.1002E+02  0.1807E+03
     -0.314  0.1520E+02  0.1819E+03
     -0.224  0.1816E+02  0.1834E+03
     -0.134  0.1897E+02  0.1851E+03
     -0.044  0.2163E+02  0.1868E+03
      0.046  0.2253E+02  0.1889E+03
      0.136  0.1647E+02  0.1903E+03
      0.225  0.2760E+02  0.1923E+03
      0.315  0.3393E+02  0.1950E+03
      0.405  0.5647E+02  0.1990E+03
      0.495  0.6437E+02  0.2042E+03
      0.585  0.5069E+02  0.2090E+03
      0.675  0.3545E+02  0.2127E+03
      0.765  0.3344E+02  0.2156E+03
      0.854  0.3534E+02  0.2188E+03
      0.944  0.3224E+02  0.2217E+03
      1.034  0.3997E+02  0.2249E+03
      1.124  0.5208E+02  0.2289E+03
      1.214  0.6863E+02  0.2338E+03
      1.304  0.6327E+02  0.2382E+03
      1.394  0.7612E+02  0.2429E+03
      1.483  0.6524E+02  0.2481E+03
      1.573  0.4151E+02  0.2523E+03
      1.663  0.2196E+02  0.2547E+03
      1.753  0.2010E+02  0.2565E+03
      1.843  0.1672E+02  0.2582E+03
      1.933  0.1171E+02  0.2594E+03
      2.022  0.4877E+02  0.2618E+03
      2.112  0.7764E+02  0.2671E+03
      2.202  0.7912E+02  0.2734E+03
      2.292  0.7992E+02  0.2795E+03
      2.382  0.6629E+02  0.2853E+03
      2.472  0.5449E+02  0.2903E+03
      2.562  0.4021E+02  0.2944E+03
      2.651  0.4436E+02  0.2980E+03
      2.741  0.5567E+02  0.3023E+03
      2.831  0.6116E+02  0.3074E+03
      2.921  0.5965E+02  0.3127E+03
      3.011  0.5090E+02  0.3174E+03
      3.101  0.4848E+02  0.3214E+03
      3.190  0.3756E+02  0.3253E+03
      3.280  0.3677E+02  0.3283E+03
      3.370  0.2431E+02  0.3310E+03
      3.460  0.1784E+02  0.3325E+03
      3.550  0.3389E+02  0.3349E+03
      3.640  0.3608E+02  0.3380E+03
      3.730  0.2944E+02  0.3409E+03
      3.819  0.2866E+02  0.3435E+03
      3.909  0.2388E+02  0.3459E+03
      3.999  0.1982E+02  0.3479E+03
      4.089  0.1959E+02  0.3496E+03
      4.179  0.1511E+02  0.3512E+03
      4.269  0.6193E+01  0.3521E+03
      4.358  0.3848E+01  0.3526E+03
      4.448  0.6295E+01  0.3530E+03
      4.538  0.9099E+01  0.3537E+03
      4.628  0.1172E+02  0.3546E+03
      4.718  0.8545E+01  0.3556E+03
      4.808  0.1050E+01  0.3560E+03
      4.898  0.1056E+01  0.3560E+03
      4.987  0.9830E+01  0.3564E+03
      5.077  0.2888E+02  0.3582E+03
      5.167  0.2943E+02  0.3608E+03
      5.257  0.2767E+02  0.3634E+03
      5.347  0.2298E+02  0.3656E+03
      5.437  0.1491E+02  0.3674E+03
      5.527  0.2730E+01  0.3680E+03
      5.616  0.4504E+01  0.3682E+03
      5.706  0.1167E+02  0.3689E+03
      5.796  0.1509E+02  0.3702E+03
      5.886  0.1276E+02  0.3715E+03
      5.976  0.1698E+02  0.3727E+03
      6.066  0.2038E+02  0.3743E+03
      6.155  0.1975E+02  0.3759E+03
      6.245  0.2196E+02  0.3777E+03
      6.335  0.2545E+02  0.3798E+03
      6.425  0.1830E+02  0.3819E+03
      6.515  0.8783E+01  0.3830E+03
      6.605  0.4380E+01  0.3836E+03
      6.695  0.2076E+01  0.3839E+03
      6.784  0.6760E+00  0.3840E+03
      6.874  0.1063E+00  0.3840E+03
      6.964  0.3359E-02  0.3840E+03
      7.054  0.0000E+00  0.3840E+03
      7.144  0.0000E+00  0.3840E+03
      7.234  0.0000E+00  0.3840E+03
      7.323  0.0000E+00  0.3840E+03
      7.413  0.0000E+00  0.3840E+03
      7.503  0.0000E+00  0.3840E+03
      7.593  0.0000E+00  0.3840E+03
      7.683  0.0000E+00  0.3840E+03
      7.773  0.1243E-02  0.3840E+03
      7.863  0.5743E-01  0.3840E+03
      7.952  0.3731E+00  0.3840E+03
      8.042  0.1164E+01  0.3841E+03
      8.132  0.2606E+01  0.3842E+03
      8.222  0.4881E+01  0.3846E+03
      8.312  0.8489E+01  0.3852E+03
      8.402  0.1130E+02  0.3861E+03
      8.491  0.1089E+02  0.3871E+03
      8.581  0.1123E+02  0.3880E+03
      8.671  0.1844E+02  0.3893E+03
      8.761  0.2355E+02  0.3913E+03
      8.851  0.2139E+02  0.3933E+03
      8.941  0.1959E+02  0.3951E+03
      9.031  0.2036E+02  0.3969E+03
      9.120  0.1818E+02  0.3987E+03
      9.210  0.1447E+02  0.4001E+03
      9.300  0.1939E+02  0.4016E+03
      9.390  0.3243E+02  0.4039E+03
      9.480  0.2878E+02  0.4067E+03
      9.570  0.2206E+02  0.4090E+03
      9.660  0.2011E+02  0.4107E+03
      9.749  0.1962E+02  0.4126E+03
      9.839  0.1989E+02  0.4143E+03
      9.929  0.2451E+02  0.4162E+03
     10.019  0.3887E+02  0.4188E+03
     10.109  0.4221E+02  0.4222E+03
     10.199  0.3727E+02  0.4255E+03
     10.288  0.3015E+02  0.4284E+03
     10.378  0.2375E+02  0.4305E+03
     10.468  0.1731E+02  0.4322E+03
     10.558  0.1236E+02  0.4335E+03
     10.648  0.1439E+02  0.4347E+03
     10.738  0.1706E+02  0.4361E+03
     10.828  0.1884E+02  0.4377E+03
     10.917  0.1972E+02  0.4395E+03
     11.007  0.1936E+02  0.4412E+03
     11.097  0.1739E+02  0.4429E+03
     11.187  0.1507E+02  0.4443E+03
     11.277  0.2032E+02  0.4458E+03
     11.367  0.2938E+02  0.4481E+03
     11.456  0.2786E+02  0.4507E+03
     11.546  0.2327E+02  0.4529E+03
     11.636  0.2309E+02  0.4550E+03
     11.726  0.2160E+02  0.4570E+03
     11.816  0.1535E+02  0.4587E+03
     11.906  0.1288E+02  0.4599E+03
     11.996  0.2690E+02  0.4616E+03
     12.085  0.2307E+02  0.4638E+03
     12.175  0.1780E+02  0.4654E+03
     12.265  0.6904E+00  0.4660E+03
     12.355  0.0000E+00  0.4660E+03
     12.445  0.0000E+00  0.4660E+03
     12.535  0.0000E+00  0.4660E+03
     12.625  0.0000E+00  0.4660E+03
     12.714  0.0000E+00  0.4660E+03
     12.804  0.0000E+00  0.4660E+03
     12.894  0.0000E+00  0.4660E+03
     12.984  0.0000E+00  0.4660E+03
     13.074  0.0000E+00  0.4660E+03
     13.164  0.0000E+00  0.4660E+03
     13.253  0.0000E+00  0.4660E+03
     13.343  0.0000E+00  0.4660E+03
     13.433  0.0000E+00  0.4660E+03
     13.523  0.0000E+00  0.4660E+03
     13.613  0.0000E+00  0.4660E+03
     13.703  0.0000E+00  0.4660E+03
     13.793  0.0000E+00  0.4660E+03
     13.882  0.0000E+00  0.4660E+03
     13.972  0.0000E+00  0.4660E+03
     14.062  0.0000E+00  0.4660E+03
     14.152  0.0000E+00  0.4660E+03
     14.242  0.0000E+00  0.4660E+03
     14.32488341    -12.71201157  301      4.17155015      1.00000000
    -12.712  0.0000E+00  0.0000E+00
    -12.622  0.0000E+00  0.0000E+00
    -12.532  0.0000E+00  0.0000E+00
    -12.442  0.0000E+00  0.0000E+00
    -12.352  0.0000E+00  0.0000E+00
    -12.261  0.0000E+00  0.0000E+00
    -12.171  0.0000E+00  0.0000E+00
    -12.081  0.0000E+00  0.0000E+00
    -11.991  0.0000E+00  0.0000E+00
    -11.901  0.0000E+00  0.0000E+00
    -11.811  0.0000E+00  0.0000E+00
    -11.721  0.0000E+00  0.0000E+00
    -11.631  0.0000E+00  0.0000E+00
    -11.540  0.0000E+00  0.0000E+00
    -11.450  0.0000E+00  0.0000E+00
    -11.360  0.0000E+00  0.0000E+00
    -11.270  0.0000E+00  0.0000E+00
    -11.180  0.0000E+00  0.0000E+00
    -11.090  0.0000E+00  0.0000E+00
    -11.000  0.0000E+00  0.0000E+00
    -10.910  0.0000E+00  0.0000E+00
    -10.819  0.0000E+00  0.0000E+00
    -10.729  0.0000E+00  0.0000E+00
    -10.639  0.2482E-02  0.6026E-04
    -10.549  0.1243E-01  0.6750E-03
    -10.459  0.3604E-01  0.2571E-02
    -10.369  0.7789E-01  0.8725E-02
    -10.279  0.1471E-01  0.1274E-01
    -10.189  0.9470E-03  0.1332E-01
    -10.098  0.2471E-01  0.1379E-01
    -10.008  0.1006E+00  0.1967E-01
     -9.918  0.9898E-01  0.2773E-01
     -9.828  0.6748E-01  0.3815E-01
     -9.738  0.6384E-01  0.4094E-01
     -9.648  0.9621E-01  0.5015E-01
     -9.558  0.0000E+00  0.5333E-01
     -9.468  0.0000E+00  0.5333E-01
     -9.377  0.0000E+00  0.5333E-01
     -9.287  0.0000E+00  0.5333E-01
     -9.197  0.0000E+00  0.5333E-01
     -9.107  0.0000E+00  0.5333E-01
     -9.017  0.0000E+00  0.5333E-01
     -8.927  0.2193E-04  0.5333E-01
     -8.837  0.2909E-02  0.5342E-01
     -8.747  0.1561E-01  0.5417E-01
     -8.656  0.3804E-01  0.5652E-01
     -8.566  0.7639E-01  0.6161E-01
     -8.476  0.1364E+00  0.7140E-01
     -8.386  0.5707E-01  0.8009E-01
     -8.296  0.2300E-01  0.8320E-01
     -8.206  0.2728E-01  0.8540E-01
     -8.116  0.4163E-01  0.8829E-01
     -8.026  0.5489E-01  0.9274E-01
     -7.935  0.5102E-01  0.9801E-01
     -7.845  0.7208E-01  0.1034E+00
     -7.755  0.1178E+00  0.1124E+00
     -7.665  0.7306E-01  0.1211E+00
     -7.575  0.4994E-01  0.1266E+00
     -7.485  0.2895E-01  0.1302E+00
     -7.395  0.1565E-01  0.1321E+00
     -7.305  0.2240E-01  0.1333E+00
     -7.215  0.7957E-01  0.1375E+00
     -7.124  0.5507E-01  0.1450E+00
     -7.034  0.5758E-01  0.1496E+00
     -6.944  0.5644E-01  0.1558E+00
     -6.854  0.2081E-01  0.1589E+00
     -6.764  0.3680E-02  0.1599E+00
     -6.674  0.0000E+00  0.1600E+00
     -6.584  0.3067E-01  0.1615E+00
     -6.494  0.6226E-01  0.1660E+00
     -6.403  0.4344E-01  0.1710E+00
     -6.313  0.4444E-01  0.1743E+00
     -6.223  0.8159E-01  0.1818E+00
     -6.133  0.5505E-01  0.1882E+00
     -6.043  0.9056E-01  0.1945E+00
     -5.953  0.8715E-01  0.2026E+00
     -5.863  0.6608E-01  0.2107E+00
     -5.773  0.9394E-01  0.2187E+00
     -5.682  0.7668E-01  0.2272E+00
     -5.592  0.5450E-01  0.2329E+00
     -5.502  0.8040E-01  0.2395E+00
     -5.412  0.9351E-01  0.2475E+00
     -5.322  0.8939E-01  0.2562E+00
     -5.232  0.7153E-01  0.2629E+00
     -5.142  0.8980E-01  0.2682E+00
     -5.052  0.2779E-01  0.2722E+00
     -4.961  0.5452E-01  0.2761E+00
     -4.871  0.1797E-01  0.2797E+00
     -4.781  0.9819E-01  0.2831E+00
     -4.691  0.5781E-01  0.2872E+00
     -4.601  0.8427E-01  0.2937E+00
     -4.511  0.8270E-01  0.3014E+00
     -4.421  0.6132E-01  0.3078E+00
     -4.331  0.4605E-01  0.3126E+00
     -4.240  0.3144E-01  0.3161E+00
     -4.150  0.1791E-01  0.3183E+00
     -4.060  0.8549E-02  0.3195E+00
     -3.970  0.2367E-02  0.3199E+00
     -3.880  0.4075E-04  0.3200E+00
     -3.790  0.3892E-03  0.3200E+00
     -3.700  0.7926E-02  0.3203E+00
     -3.610  0.2451E-01  0.3217E+00
     -3.519  0.4552E-01  0.3248E+00
     -3.429  0.7041E-01  0.3300E+00
     -3.339  0.8934E-01  0.3375E+00
     -3.249  0.6442E-01  0.3445E+00
     -3.159  0.4315E-01  0.3492E+00
     -3.069  0.6766E-01  0.3524E+00
     -2.979  0.7039E-01  0.3584E+00
     -2.889  0.7026E-01  0.3638E+00
     -2.798  0.8234E-01  0.3708E+00
     -2.708  0.9058E-01  0.3786E+00
     -2.618  0.9144E-01  0.3869E+00
     -2.528  0.7408E-01  0.3946E+00
     -2.438  0.6778E-01  0.4001E+00
     -2.348  0.1034E+00  0.4082E+00
     -2.258  0.8095E-01  0.4169E+00
     -2.168  0.8133E-01  0.4234E+00
     -2.077  0.1564E+00  0.4333E+00
     -1.987  0.1439E+00  0.4455E+00
     -1.897  0.1846E+00  0.4608E+00
     -1.807  0.1023E+00  0.4739E+00
     -1.717  0.1077E+00  0.4826E+00
     -1.627  0.4698E-01  0.4910E+00
     -1.537  0.5833E-01  0.4951E+00
     -1.447  0.9889E-01  0.5022E+00
     -1.357  0.1208E+00  0.5129E+00
     -1.266  0.1094E+00  0.5225E+00
     -1.176  0.7647E-01  0.5311E+00
     -1.086  0.7002E-01  0.5375E+00
     -0.996  0.1103E+00  0.5453E+00
     -0.906  0.1497E+00  0.5570E+00
     -0.816  0.1399E+00  0.5704E+00
     -0.726  0.9246E-01  0.5813E+00
     -0.636  0.1362E+00  0.5929E+00
     -0.545  0.3411E-01  0.5995E+00
     -0.455  0.2769E-01  0.6018E+00
     -0.365  0.4531E-01  0.6051E+00
     -0.275  0.5610E-01  0.6098E+00
     -0.185  0.6232E-01  0.6151E+00
     -0.095  0.6382E-01  0.6208E+00
     -0.005  0.9978E-01  0.6280E+00
      0.085  0.5391E-01  0.6331E+00
      0.176  0.9471E-01  0.6396E+00
      0.266  0.9575E-01  0.6481E+00
      0.356  0.1802E+00  0.6595E+00
      0.446  0.2348E+00  0.6775E+00
      0.536  0.1908E+00  0.6944E+00
      0.626  0.1201E+00  0.7083E+00
      0.716  0.1280E+00  0.7187E+00
      0.806  0.1231E+00  0.7309E+00
      0.897  0.1163E+00  0.7410E+00
      0.987  0.7806E-01  0.7515E+00
      1.077  0.1610E+00  0.7648E+00
      1.167  0.2101E+00  0.7842E+00
      1.257  0.1626E+00  0.7959E+00
      1.347  0.1932E+00  0.8115E+00
      1.437  0.2404E+00  0.8272E+00
      1.527  0.1392E+00  0.8404E+00
      1.618  0.7029E-01  0.8484E+00
      1.708  0.6642E-01  0.8543E+00
      1.798  0.6007E-01  0.8601E+00
      1.888  0.3534E-01  0.8646E+00
      1.978  0.1463E+00  0.8697E+00
      2.068  0.2748E+00  0.8866E+00
      2.158  0.3310E+00  0.9098E+00
      2.248  0.2676E+00  0.9294E+00
      2.339  0.2684E+00  0.9498E+00
      2.429  0.1928E+00  0.9675E+00
      2.519  0.1166E+00  0.9829E+00
      2.609  0.1898E+00  0.9953E+00
      2.699  0.1658E+00  0.1009E+01
      2.789  0.2112E+00  0.1025E+01
      2.879  0.2001E+00  0.1043E+01
      2.969  0.1597E+00  0.1058E+01
      3.060  0.1947E+00  0.1071E+01
      3.150  0.1316E+00  0.1085E+01
      3.240  0.2034E+00  0.1095E+01
      3.330  0.6459E-01  0.1105E+01
      3.420  0.4172E-01  0.1108E+01
      3.510  0.1060E+00  0.1114E+01
      3.600  0.1387E+00  0.1125E+01
      3.690  0.1011E+00  0.1136E+01
      3.780  0.1056E+00  0.1144E+01
      3.871  0.7540E-01  0.1153E+01
      3.961  0.6894E-01  0.1160E+01
      4.051  0.6797E-01  0.1167E+01
      4.141  0.5134E-01  0.1172E+01
      4.231  0.7218E-02  0.1174E+01
      4.321  0.1274E-01  0.1175E+01
      4.411  0.2079E-01  0.1176E+01
      4.501  0.3023E-01  0.1179E+01
      4.592  0.5612E-01  0.1182E+01
      4.682  0.1957E-01  0.1186E+01
      4.772  0.0000E+00  0.1187E+01
      4.862  0.3553E-03  0.1187E+01
      4.952  0.2327E-01  0.1187E+01
      5.042  0.1004E+00  0.1192E+01
      5.132  0.1095E+00  0.1202E+01
      5.222  0.9303E-01  0.1210E+01
      5.313  0.9057E-01  0.1218E+01
      5.403  0.3711E-01  0.1226E+01
      5.493  0.1270E-02  0.1227E+01
      5.583  0.2064E-01  0.1228E+01
      5.673  0.4666E-01  0.1231E+01
      5.763  0.4980E-01  0.1235E+01
      5.853  0.3227E-01  0.1239E+01
      5.943  0.1431E+00  0.1243E+01
      6.034  0.6337E-01  0.1248E+01
      6.124  0.6589E-01  0.1253E+01
      6.214  0.7739E-01  0.1260E+01
      6.304  0.1089E+00  0.1267E+01
      6.394  0.3975E-01  0.1275E+01
      6.484  0.2191E-01  0.1277E+01
      6.574  0.1271E-01  0.1279E+01
      6.664  0.6016E-02  0.1280E+01
      6.755  0.1839E-02  0.1280E+01
      6.845  0.1418E-03  0.1280E+01
      6.935  0.0000E+00  0.1280E+01
      7.025  0.0000E+00  0.1280E+01
      7.115  0.0000E+00  0.1280E+01
      7.205  0.0000E+00  0.1280E+01
      7.295  0.0000E+00  0.1280E+01
      7.385  0.0000E+00  0.1280E+01
      7.476  0.0000E+00  0.1280E+01
      7.566  0.0000E+00  0.1280E+01
      7.656  0.0000E+00  0.1280E+01
      7.746  0.0000E+00  0.1280E+01
      7.836  0.1755E-03  0.1280E+01
      7.926  0.1671E-02  0.1280E+01
      8.016  0.4977E-02  0.1280E+01
      8.106  0.1036E-01  0.1281E+01
      8.197  0.1781E-01  0.1282E+01
      8.287  0.3299E-01  0.1284E+01
      8.377  0.3939E-01  0.1288E+01
      8.467  0.3280E-01  0.1291E+01
      8.557  0.4954E-01  0.1294E+01
      8.647  0.7139E-01  0.1300E+01
      8.737  0.8067E-01  0.1307E+01
      8.827  0.6958E-01  0.1314E+01
      8.918  0.8259E-01  0.1320E+01
      9.008  0.6696E-01  0.1327E+01
      9.098  0.4271E-01  0.1332E+01
      9.188  0.3808E-01  0.1336E+01
      9.278  0.1010E+00  0.1342E+01
      9.368  0.1141E+00  0.1351E+01
      9.458  0.9115E-01  0.1360E+01
      9.548  0.6246E-01  0.1367E+01
      9.638  0.6360E-01  0.1373E+01
      9.729  0.5232E-01  0.1378E+01
      9.819  0.6468E-01  0.1384E+01
      9.909  0.8048E-01  0.1390E+01
      9.999  0.1363E+00  0.1401E+01
     10.089  0.1227E+00  0.1411E+01
     10.179  0.1377E+00  0.1420E+01
     10.269  0.8289E-01  0.1429E+01
     10.359  0.9773E-01  0.1436E+01
     10.450  0.6134E-01  0.1442E+01
     10.540  0.4295E-01  0.1446E+01
     10.630  0.5315E-01  0.1451E+01
     10.720  0.6085E-01  0.1456E+01
     10.810  0.6554E-01  0.1462E+01
     10.900  0.6745E-01  0.1468E+01
     10.990  0.6411E-01  0.1474E+01
     11.080  0.5213E-01  0.1479E+01
     11.171  0.4174E-01  0.1483E+01
     11.261  0.6521E-01  0.1488E+01
     11.351  0.9391E-01  0.1496E+01
     11.441  0.7008E-01  0.1503E+01
     11.531  0.5678E-01  0.1508E+01
     11.621  0.6166E-01  0.1514E+01
     11.711  0.6459E-01  0.1519E+01
     11.801  0.5860E-01  0.1525E+01
     11.892  0.4310E-01  0.1530E+01
     11.982  0.6210E-01  0.1534E+01
     12.072  0.8260E-01  0.1542E+01
     12.162  0.7319E-01  0.1549E+01
     12.252  0.2178E-01  0.1553E+01
     12.342  0.0000E+00  0.1553E+01
     12.432  0.0000E+00  0.1553E+01
     12.522  0.0000E+00  0.1553E+01
     12.613  0.0000E+00  0.1553E+01
     12.703  0.0000E+00  0.1553E+01
     12.793  0.0000E+00  0.1553E+01
     12.883  0.0000E+00  0.1553E+01
     12.973  0.0000E+00  0.1553E+01
     13.063  0.0000E+00  0.1553E+01
     13.153  0.0000E+00  0.1553E+01
     13.243  0.0000E+00  0.1553E+01
     13.334  0.0000E+00  0.1553E+01
     13.424  0.0000E+00  0.1553E+01
     13.514  0.0000E+00  0.1553E+01
     13.604  0.0000E+00  0.1553E+01
     13.694  0.0000E+00  0.1553E+01
     13.784  0.0000E+00  0.1553E+01
     13.874  0.0000E+00  0.1553E+01
     13.964  0.0000E+00  0.1553E+01
     14.055  0.0000E+00  0.1553E+01
     14.145  0.0000E+00  0.1553E+01
     14.235  0.0000E+00  0.1553E+01
     14.325  0.0000E+00  0.1553E+01
