[1651804228.674214] [c0901a-s35:97597:0]    ucp_context.c:1075 UCX  ERROR exceeded transports/devices limit (78 requested, up to 64 are supported)
 running on    1 total cores
 distrk:  each k-point on    1 cores,    1 groups
 distr:  one band on    1 cores,    1 groups
 OpenACC runtime initialized ...    1 GPUs detected
 vasp.6.2.0 18Jan21 (build Feb 25 2021 07:51:20) complex                         
 POSCAR found type information on POSCAR B C 
 POSCAR found :  2 types and     112 ions
 scaLAPACK will be used selectively (only on CPU)
 LDA part: xc-table for Pade appr. of Perdew
 -----------------------------------------------------------------------------
|                                                                             |
|           W    W    AA    RRRRR   N    N  II  N    N   GGGG   !!!           |
|           W    W   A  A   R    R  NN   N  II  NN   N  G    G  !!!           |
|           W    W  A    A  R    R  N N  N  II  N N  N  G       !!!           |
|           W WW W  AAAAAA  RRRRR   N  N N  II  N  N N  G  GGG   !            |
|           WW  WW  A    A  R   R   N   NN  II  N   NN  G    G                |
|           W    W  A    A  R    R  N    N  II  N    N   GGGG   !!!           |
|                                                                             |
|     The requested file  could not be found or opened for reading            |
|     k-point information. Automatic k-point generation is used as a          |
|     fallback, which may lead to unwanted results.                           |
|                                                                             |
 -----------------------------------------------------------------------------

 POSCAR, INCAR and KPOINTS ok, starting setup
 FFT: planning ...
 WAVECAR not read
 WARNING: random wavefunctions but no delay for mixing, default for NELMDL
 prediction of wavefunctions initialized - no I/O
 entering main loop
       N       E                     dE             d eps       ncg     rms          rms(c)
DAV:   1     0.136363852569E+04    0.13636E+04   -0.19746E+05  3728   0.176E+03
DAV:   2    -0.713214971301E+03   -0.20769E+04   -0.19592E+04  4680   0.306E+02
DAV:   3    -0.837433910367E+03   -0.12422E+03   -0.12093E+03  4424   0.664E+01
DAV:   4    -0.840268219889E+03   -0.28343E+01   -0.28180E+01  4376   0.105E+01
DAV:   5    -0.840344982744E+03   -0.76763E-01   -0.76621E-01  4352   0.164E+00    0.386E+01
RMM:   6    -0.804418201303E+03    0.35927E+02   -0.32787E+01  3728   0.842E+00    0.217E+01
RMM:   7    -0.793813932562E+03    0.10604E+02   -0.32286E+01  3728   0.878E+00    0.506E+00
RMM:   8    -0.793993554808E+03   -0.17962E+00   -0.33906E+00  3728   0.357E+00    0.227E+00
RMM:   9    -0.794053190239E+03   -0.59635E-01   -0.33807E-01  3728   0.116E+00    0.947E-01
RMM:  10    -0.794038531694E+03    0.14659E-01   -0.80691E-02  3728   0.503E-01    0.404E-01
RMM:  11    -0.794032710559E+03    0.58211E-02   -0.24022E-02  3745   0.256E-01    0.225E-01
RMM:  12    -0.794035027320E+03   -0.23168E-02   -0.55610E-03  3742   0.123E-01    0.125E-01
RMM:  13    -0.794036385463E+03   -0.13581E-02   -0.15557E-03  3744   0.606E-02    0.110E-01
RMM:  14    -0.794037258786E+03   -0.87332E-03   -0.43949E-04  2918   0.323E-02    0.862E-02
RMM:  15    -0.794035886077E+03    0.13727E-02   -0.25463E-04  2645   0.227E-02    0.130E-01
RMM:  16    -0.794035949398E+03   -0.63321E-04   -0.81040E-05  2289   0.151E-02
    1 T=   300. E= -.78973173E+03 F= -.79403595E+03 E0= -.79403595E+03  EK= 0.43042E+01 SP= 0.00E+00 SK= 0.20E-10
 bond charge predicted
 -----------------------------------------------------------------------------
|                                                                             |
|           W    W    AA    RRRRR   N    N  II  N    N   GGGG   !!!           |
|           W    W   A  A   R    R  NN   N  II  NN   N  G    G  !!!           |
|           W    W  A    A  R    R  N N  N  II  N N  N  G       !!!           |
|           W WW W  AAAAAA  RRRRR   N  N N  II  N  N N  G  GGG   !            |
|           WW  WW  A    A  R   R   N   NN  II  N   NN  G    G                |
|           W    W  A    A  R    R  N    N  II  N    N   GGGG   !!!           |
|                                                                             |
|     Tetrahedron method does not include variations of the Fermi             |
|     occupations, so forces and stress will be inaccurate. We suggest        |
|     using a different smearing scheme ISMEAR = 1 or 2 for metals in         |
|     relaxations.                                                            |
|                                                                             |
 -----------------------------------------------------------------------------

       N       E                     dE             d eps       ncg     rms          rms(c)
DAV:   1    -0.794012267385E+03    0.23619E-01   -0.19596E+00  4080   0.303E+00    0.430E-01
RMM:   2    -0.794014094148E+03   -0.18268E-02   -0.38762E-02  3728   0.420E-01    0.291E-01
RMM:   3    -0.794012963778E+03    0.11304E-02   -0.59099E-03  3731   0.152E-01    0.204E-01
RMM:   4    -0.794012673969E+03    0.28981E-03   -0.23668E-03  3732   0.824E-02    0.113E-01
RMM:   5    -0.794013260705E+03   -0.58674E-03   -0.48434E-04  3097   0.384E-02    0.781E-02
RMM:   6    -0.794013694590E+03   -0.43389E-03   -0.14046E-04  2293   0.201E-02    0.301E-02
RMM:   7    -0.794013296128E+03    0.39846E-03   -0.55987E-05  2228   0.117E-02    0.785E-02
RMM:   8    -0.794013627650E+03   -0.33152E-03   -0.19224E-05  2162   0.682E-03    0.208E-02
RMM:   9    -0.794013582683E+03    0.44967E-04   -0.89812E-07   882   0.389E-03
    2 T=   299. E= -.78973015E+03 F= -.79401358E+03 E0= -.79401358E+03  EK= 0.42834E+01 SP= -.41E-05 SK= 0.32E-06
Information: wavefunction orthogonal band  232  0.8104
Information: wavefunction orthogonal band  226  0.8279
Information: wavefunction orthogonal band  232  0.7198
Information: wavefunction orthogonal band  233  0.8455
Information: wavefunction orthogonal band  231  0.8466
Information: wavefunction orthogonal band  232  0.7685
Information: wavefunction orthogonal band  233  0.8929
Information: wavefunction orthogonal band  230  0.8514
Information: wavefunction orthogonal band  233  0.8740
Information: wavefunction orthogonal band  232  0.8846
 bond charge predicted
 prediction of wavefunctions
 -----------------------------------------------------------------------------
|                                                                             |
|           W    W    AA    RRRRR   N    N  II  N    N   GGGG   !!!           |
|           W    W   A  A   R    R  NN   N  II  NN   N  G    G  !!!           |
|           W    W  A    A  R    R  N N  N  II  N N  N  G       !!!           |
|           W WW W  AAAAAA  RRRRR   N  N N  II  N  N N  G  GGG   !            |
|           WW  WW  A    A  R   R   N   NN  II  N   NN  G    G                |
|           W    W  A    A  R    R  N    N  II  N    N   GGGG   !!!           |
|                                                                             |
|     Tetrahedron method does not include variations of the Fermi             |
|     occupations, so forces and stress will be inaccurate. We suggest        |
|     using a different smearing scheme ISMEAR = 1 or 2 for metals in         |
|     relaxations.                                                            |
|                                                                             |
 -----------------------------------------------------------------------------

       N       E                     dE             d eps       ncg     rms          rms(c)
DAV:   1    -0.793948323917E+03    0.65304E-01   -0.55703E-03  5229   0.487E-01    0.693E-02
RMM:   2    -0.793948224184E+03    0.99733E-04   -0.20760E-03  3724   0.960E-02    0.122E-01
RMM:   3    -0.793947976620E+03    0.24756E-03   -0.32960E-04  2823   0.345E-02    0.407E-02
RMM:   4    -0.793947777681E+03    0.19894E-03   -0.63499E-05  2165   0.141E-02    0.264E-02
RMM:   5    -0.793947837422E+03   -0.59741E-04   -0.15556E-05  1905   0.683E-03
    3 T=   294. E= -.78972582E+03 F= -.79394784E+03 E0= -.79394784E+03  EK= 0.42225E+01 SP= -.53E-03 SK= 0.11E-04
 bond charge predicted
 prediction of wavefunctions
 -----------------------------------------------------------------------------
|                                                                             |
|           W    W    AA    RRRRR   N    N  II  N    N   GGGG   !!!           |
|           W    W   A  A   R    R  NN   N  II  NN   N  G    G  !!!           |
|           W    W  A    A  R    R  N N  N  II  N N  N  G       !!!           |
|           W WW W  AAAAAA  RRRRR   N  N N  II  N  N N  G  GGG   !            |
|           WW  WW  A    A  R   R   N   NN  II  N   NN  G    G                |
|           W    W  A    A  R    R  N    N  II  N    N   GGGG   !!!           |
|                                                                             |
|     Tetrahedron method does not include variations of the Fermi             |
|     occupations, so forces and stress will be inaccurate. We suggest        |
|     using a different smearing scheme ISMEAR = 1 or 2 for metals in         |
|     relaxations.                                                            |
|                                                                             |
 -----------------------------------------------------------------------------

       N       E                     dE             d eps       ncg     rms          rms(c)
DAV:   1    -0.793844269932E+03    0.10351E+00   -0.20175E-02  4657   0.513E-01    0.151E-01
RMM:   2    -0.793847576027E+03   -0.33061E-02   -0.60959E-03  3728   0.133E-01    0.141E-01
RMM:   3    -0.793845047675E+03    0.25284E-02   -0.90472E-04  3616   0.549E-02    0.425E-02
RMM:   4    -0.793844925435E+03    0.12224E-03   -0.25052E-04  2591   0.243E-02    0.259E-02
RMM:   5    -0.793844719376E+03    0.20606E-03   -0.85225E-05  2200   0.133E-02    0.117E-02
RMM:   6    -0.793844751239E+03   -0.31863E-04   -0.14209E-05  1806   0.648E-03
    4 T=   287. E= -.78972358E+03 F= -.79384475E+03 E0= -.79384475E+03  EK= 0.41241E+01 SP= -.31E-02 SK= 0.11E-03
Information: wavefunction orthogonal band  232  0.8956
 bond charge predicted
 prediction of wavefunctions
 -----------------------------------------------------------------------------
|                                                                             |
|           W    W    AA    RRRRR   N    N  II  N    N   GGGG   !!!           |
|           W    W   A  A   R    R  NN   N  II  NN   N  G    G  !!!           |
|           W    W  A    A  R    R  N N  N  II  N N  N  G       !!!           |
|           W WW W  AAAAAA  RRRRR   N  N N  II  N  N N  G  GGG   !            |
|           WW  WW  A    A  R   R   N   NN  II  N   NN  G    G                |
|           W    W  A    A  R    R  N    N  II  N    N   GGGG   !!!           |
|                                                                             |
|     Tetrahedron method does not include variations of the Fermi             |
|     occupations, so forces and stress will be inaccurate. We suggest        |
|     using a different smearing scheme ISMEAR = 1 or 2 for metals in         |
|     relaxations.                                                            |
|                                                                             |
 -----------------------------------------------------------------------------

       N       E                     dE             d eps       ncg     rms          rms(c)
DAV:   1    -0.793704530825E+03    0.14019E+00   -0.50641E-03  5169   0.469E-01    0.389E-02
RMM:   2    -0.793704635765E+03   -0.10494E-03   -0.16067E-03  3720   0.761E-02    0.226E-02
RMM:   3    -0.793704848850E+03   -0.21308E-03   -0.24904E-04  2401   0.302E-02    0.165E-02
RMM:   4    -0.793704827604E+03    0.21246E-04   -0.51902E-05  2157   0.127E-02
    5 T=   278. E= -.78972152E+03 F= -.79370483E+03 E0= -.79370483E+03  EK= 0.39928E+01 SP= -.10E-01 SK= 0.55E-03
Information: wavefunction orthogonal band  233  0.8902
Information: wavefunction orthogonal band  233  0.8789
Information: wavefunction orthogonal band  233  0.8932
 bond charge predicted
 prediction of wavefunctions
 -----------------------------------------------------------------------------
|                                                                             |
|           W    W    AA    RRRRR   N    N  II  N    N   GGGG   !!!           |
|           W    W   A  A   R    R  NN   N  II  NN   N  G    G  !!!           |
|           W    W  A    A  R    R  N N  N  II  N N  N  G       !!!           |
|           W WW W  AAAAAA  RRRRR   N  N N  II  N  N N  G  GGG   !            |
|           WW  WW  A    A  R   R   N   NN  II  N   NN  G    G                |
|           W    W  A    A  R    R  N    N  II  N    N   GGGG   !!!           |
|                                                                             |
|     Tetrahedron method does not include variations of the Fermi             |
|     occupations, so forces and stress will be inaccurate. We suggest        |
|     using a different smearing scheme ISMEAR = 1 or 2 for metals in         |
|     relaxations.                                                            |
|                                                                             |
 -----------------------------------------------------------------------------

       N       E                     dE             d eps       ncg     rms          rms(c)
DAV:   1    -0.793531967532E+03    0.17288E+00   -0.37142E-03  5267   0.470E-01    0.457E-02
RMM:   2    -0.793531510234E+03    0.45730E-03   -0.14306E-03  3688   0.651E-02    0.264E-02
RMM:   3    -0.793531725858E+03   -0.21562E-03   -0.27011E-04  2527   0.283E-02    0.152E-02
RMM:   4    -0.793531595103E+03    0.13075E-03   -0.68541E-05  2192   0.132E-02    0.841E-03
RMM:   5    -0.793531644790E+03   -0.49686E-04   -0.15515E-05  1895   0.667E-03
    6 T=   267. E= -.78971969E+03 F= -.79353164E+03 E0= -.79353164E+03  EK= 0.38347E+01 SP= -.25E-01 SK= 0.20E-02
Information: wavefunction orthogonal band  230  0.8683
Information: wavefunction orthogonal band  233  0.8736
Information: wavefunction orthogonal band  233  0.8939
Information: wavefunction orthogonal band  233  0.8941
 bond charge predicted
 prediction of wavefunctions
 -----------------------------------------------------------------------------
|                                                                             |
|           W    W    AA    RRRRR   N    N  II  N    N   GGGG   !!!           |
|           W    W   A  A   R    R  NN   N  II  NN   N  G    G  !!!           |
|           W    W  A    A  R    R  N N  N  II  N N  N  G       !!!           |
|           W WW W  AAAAAA  RRRRR   N  N N  II  N  N N  G  GGG   !            |
|           WW  WW  A    A  R   R   N   NN  II  N   NN  G    G                |
|           W    W  A    A  R    R  N    N  II  N    N   GGGG   !!!           |
|                                                                             |
|     Tetrahedron method does not include variations of the Fermi             |
|     occupations, so forces and stress will be inaccurate. We suggest        |
|     using a different smearing scheme ISMEAR = 1 or 2 for metals in         |
|     relaxations.                                                            |
|                                                                             |
 -----------------------------------------------------------------------------

       N       E                     dE             d eps       ncg     rms          rms(c)
DAV:   1    -0.793329043885E+03    0.20255E+00   -0.34683E-03  5155   0.442E-01    0.228E-02
RMM:   2    -0.793329193270E+03   -0.14939E-03   -0.12073E-03  3670   0.611E-02    0.122E-02
RMM:   3    -0.793329229839E+03   -0.36569E-04   -0.19985E-04  2296   0.256E-02
    7 T=   255. E= -.78971781E+03 F= -.79332923E+03 E0= -.79332923E+03  EK= 0.36569E+01 SP= -.51E-01 SK= 0.55E-02
Information: wavefunction orthogonal band  231  0.8761
Information: wavefunction orthogonal band  231  0.8921
 bond charge predicted
 prediction of wavefunctions
 -----------------------------------------------------------------------------
|                                                                             |
|           W    W    AA    RRRRR   N    N  II  N    N   GGGG   !!!           |
|           W    W   A  A   R    R  NN   N  II  NN   N  G    G  !!!           |
|           W    W  A    A  R    R  N N  N  II  N N  N  G       !!!           |
|           W WW W  AAAAAA  RRRRR   N  N N  II  N  N N  G  GGG   !            |
|           WW  WW  A    A  R   R   N   NN  II  N   NN  G    G                |
|           W    W  A    A  R    R  N    N  II  N    N   GGGG   !!!           |
|                                                                             |
|     Tetrahedron method does not include variations of the Fermi             |
|     occupations, so forces and stress will be inaccurate. We suggest        |
|     using a different smearing scheme ISMEAR = 1 or 2 for metals in         |
|     relaxations.                                                            |
|                                                                             |
 -----------------------------------------------------------------------------

       N       E                     dE             d eps       ncg     rms          rms(c)
DAV:   1    -0.793102421420E+03    0.22677E+00   -0.38939E-03  5227   0.426E-01    0.179E-02
RMM:   2    -0.793102431304E+03   -0.98843E-05   -0.13211E-03  3673   0.648E-02    0.108E-02
RMM:   3    -0.793102522206E+03   -0.90903E-04   -0.21510E-04  2312   0.275E-02
    8 T=   242. E= -.78971606E+03 F= -.79310252E+03 E0= -.79310252E+03  EK= 0.34667E+01 SP= -.93E-01 SK= 0.13E-01
Information: wavefunction orthogonal band  232  0.8773
Information: wavefunction orthogonal band  232  0.8703
Information: wavefunction orthogonal band  233  0.8913
Information: wavefunction orthogonal band  231  0.8977
Information: wavefunction orthogonal band  232  0.8969
Information: wavefunction orthogonal band  233  0.8933
 bond charge predicted
 prediction of wavefunctions
 -----------------------------------------------------------------------------
|                                                                             |
|           W    W    AA    RRRRR   N    N  II  N    N   GGGG   !!!           |
|           W    W   A  A   R    R  NN   N  II  NN   N  G    G  !!!           |
|           W    W  A    A  R    R  N N  N  II  N N  N  G       !!!           |
|           W WW W  AAAAAA  RRRRR   N  N N  II  N  N N  G  GGG   !            |
|           WW  WW  A    A  R   R   N   NN  II  N   NN  G    G                |
|           W    W  A    A  R    R  N    N  II  N    N   GGGG   !!!           |
|                                                                             |
|     Tetrahedron method does not include variations of the Fermi             |
|     occupations, so forces and stress will be inaccurate. We suggest        |
|     using a different smearing scheme ISMEAR = 1 or 2 for metals in         |
|     relaxations.                                                            |
|                                                                             |
 -----------------------------------------------------------------------------

       N       E                     dE             d eps       ncg     rms          rms(c)
DAV:   1    -0.792856231383E+03    0.24620E+00   -0.39052E-03  5250   0.408E-01    0.925E-03
RMM:   2    -0.792856472266E+03   -0.24088E-03   -0.13079E-03  3680   0.616E-02    0.715E-03
RMM:   3    -0.792856466845E+03    0.54205E-05   -0.21456E-04  2303   0.268E-02
    9 T=   228. E= -.78971438E+03 F= -.79285647E+03 E0= -.79285647E+03  EK= 0.32714E+01 SP= -.16E+00 SK= 0.27E-01
Information: wavefunction orthogonal band  232  0.8795
 bond charge predicted
 prediction of wavefunctions
 -----------------------------------------------------------------------------
|                                                                             |
|           W    W    AA    RRRRR   N    N  II  N    N   GGGG   !!!           |
|           W    W   A  A   R    R  NN   N  II  NN   N  G    G  !!!           |
|           W    W  A    A  R    R  N N  N  II  N N  N  G       !!!           |
|           W WW W  AAAAAA  RRRRR   N  N N  II  N  N N  G  GGG   !            |
|           WW  WW  A    A  R   R   N   NN  II  N   NN  G    G                |
|           W    W  A    A  R    R  N    N  II  N    N   GGGG   !!!           |
|                                                                             |
|     Tetrahedron method does not include variations of the Fermi             |
|     occupations, so forces and stress will be inaccurate. We suggest        |
|     using a different smearing scheme ISMEAR = 1 or 2 for metals in         |
|     relaxations.                                                            |
|                                                                             |
 -----------------------------------------------------------------------------

       N       E                     dE             d eps       ncg     rms          rms(c)
DAV:   1    -0.792596184681E+03    0.26029E+00   -0.38284E-03  5187   0.387E-01    0.863E-02
RMM:   2    -0.792595718590E+03    0.46609E-03   -0.14478E-03  3709   0.637E-02    0.484E-02
RMM:   3    -0.792596118214E+03   -0.39962E-03   -0.23642E-04  2383   0.282E-02    0.230E-02
RMM:   4    -0.792596175224E+03   -0.57010E-04   -0.55346E-05  2117   0.127E-02
   10 T=   215. E= -.78971278E+03 F= -.79259618E+03 E0= -.79259618E+03  EK= 0.30777E+01 SP= -.24E+00 SK= 0.50E-01
Information: wavefunction orthogonal band  232  0.8354
 bond charge predicted
 prediction of wavefunctions
 -----------------------------------------------------------------------------
|                                                                             |
|           W    W    AA    RRRRR   N    N  II  N    N   GGGG   !!!           |
|           W    W   A  A   R    R  NN   N  II  NN   N  G    G  !!!           |
|           W    W  A    A  R    R  N N  N  II  N N  N  G       !!!           |
|           W WW W  AAAAAA  RRRRR   N  N N  II  N  N N  G  GGG   !            |
|           WW  WW  A    A  R   R   N   NN  II  N   NN  G    G                |
|           W    W  A    A  R    R  N    N  II  N    N   GGGG   !!!           |
|                                                                             |
|     Tetrahedron method does not include variations of the Fermi             |
|     occupations, so forces and stress will be inaccurate. We suggest        |
|     using a different smearing scheme ISMEAR = 1 or 2 for metals in         |
|     relaxations.                                                            |
|                                                                             |
 -----------------------------------------------------------------------------

       N       E                     dE             d eps       ncg     rms          rms(c)
DAV:   1    -0.792326920566E+03    0.26920E+00   -0.41125E-03  5104   0.367E-01    0.146E-01
RMM:   2    -0.792326346425E+03    0.57414E-03   -0.19945E-03  3710   0.689E-02    0.790E-02
RMM:   3    -0.792326729509E+03   -0.38308E-03   -0.31023E-04  2646   0.313E-02    0.562E-02
RMM:   4    -0.792326645137E+03    0.84371E-04   -0.56130E-05  2145   0.134E-02
   11 T=   202. E= -.78971071E+03 F= -.79232665E+03 E0= -.79232665E+03  EK= 0.28924E+01 SP= -.36E+00 SK= 0.87E-01
Information: wavefunction orthogonal band  229  0.8836
Information: wavefunction orthogonal band  233  0.8922
Information: wavefunction orthogonal band  231  0.8580
Information: wavefunction orthogonal band  232  0.8577
Information: wavefunction orthogonal band  231  0.8981
Information: wavefunction orthogonal band  233  0.8998
 bond charge predicted
 prediction of wavefunctions
 -----------------------------------------------------------------------------
|                                                                             |
|           W    W    AA    RRRRR   N    N  II  N    N   GGGG   !!!           |
|           W    W   A  A   R    R  NN   N  II  NN   N  G    G  !!!           |
|           W    W  A    A  R    R  N N  N  II  N N  N  G       !!!           |
|           W WW W  AAAAAA  RRRRR   N  N N  II  N  N N  G  GGG   !            |
|           WW  WW  A    A  R   R   N   NN  II  N   NN  G    G                |
|           W    W  A    A  R    R  N    N  II  N    N   GGGG   !!!           |
|                                                                             |
|     Tetrahedron method does not include variations of the Fermi             |
|     occupations, so forces and stress will be inaccurate. We suggest        |
|     using a different smearing scheme ISMEAR = 1 or 2 for metals in         |
|     relaxations.                                                            |
|                                                                             |
 -----------------------------------------------------------------------------

       N       E                     dE             d eps       ncg     rms          rms(c)
DAV:   1    -0.792053642440E+03    0.27309E+00   -0.28626E-03  4929   0.352E-01    0.224E-01
RMM:   2    -0.792054028517E+03   -0.38608E-03   -0.34720E-03  3723   0.821E-02    0.723E-02
RMM:   3    -0.792053232227E+03    0.79629E-03   -0.41372E-04  3015   0.365E-02    0.206E-02
RMM:   4    -0.792053294087E+03   -0.61860E-04   -0.10609E-04  2195   0.164E-02
   12 T=   190. E= -.78970879E+03 F= -.79205329E+03 E0= -.79205329E+03  EK= 0.27209E+01 SP= -.52E+00 SK= 0.14E+00
Information: wavefunction orthogonal band  230  0.8782
Information: wavefunction orthogonal band  232  0.8679
Information: wavefunction orthogonal band  230  0.8965
Information: wavefunction orthogonal band  233  0.8542
Information: wavefunction orthogonal band  232  0.8844
 bond charge predicted
 prediction of wavefunctions
 -----------------------------------------------------------------------------
|                                                                             |
|           W    W    AA    RRRRR   N    N  II  N    N   GGGG   !!!           |
|           W    W   A  A   R    R  NN   N  II  NN   N  G    G  !!!           |
|           W    W  A    A  R    R  N N  N  II  N N  N  G       !!!           |
|           W WW W  AAAAAA  RRRRR   N  N N  II  N  N N  G  GGG   !            |
|           WW  WW  A    A  R   R   N   NN  II  N   NN  G    G                |
|           W    W  A    A  R    R  N    N  II  N    N   GGGG   !!!           |
|                                                                             |
|     Tetrahedron method does not include variations of the Fermi             |
|     occupations, so forces and stress will be inaccurate. We suggest        |
|     using a different smearing scheme ISMEAR = 1 or 2 for metals in         |
|     relaxations.                                                            |
|                                                                             |
 -----------------------------------------------------------------------------

       N       E                     dE             d eps       ncg     rms          rms(c)
DAV:   1    -0.791780233205E+03    0.27300E+00   -0.31946E-03  5084   0.328E-01    0.598E-02
RMM:   2    -0.791780562359E+03   -0.32915E-03   -0.10321E-03  3505   0.533E-02    0.281E-02
RMM:   3    -0.791780473272E+03    0.89088E-04   -0.18131E-04  2274   0.236E-02
   13 T=   179. E= -.78970729E+03 F= -.79178047E+03 E0= -.79178047E+03  EK= 0.25679E+01 SP= -.71E+00 SK= 0.21E+00
Information: wavefunction orthogonal band  231  0.8995
Information: wavefunction orthogonal band  233  0.8983
 bond charge predicted
 prediction of wavefunctions
 -----------------------------------------------------------------------------
|                                                                             |
|           W    W    AA    RRRRR   N    N  II  N    N   GGGG   !!!           |
|           W    W   A  A   R    R  NN   N  II  NN   N  G    G  !!!           |
|           W    W  A    A  R    R  N N  N  II  N N  N  G       !!!           |
|           W WW W  AAAAAA  RRRRR   N  N N  II  N  N N  G  GGG   !            |
|           WW  WW  A    A  R   R   N   NN  II  N   NN  G    G                |
|           W    W  A    A  R    R  N    N  II  N    N   GGGG   !!!           |
|                                                                             |
|     Tetrahedron method does not include variations of the Fermi             |
|     occupations, so forces and stress will be inaccurate. We suggest        |
|     using a different smearing scheme ISMEAR = 1 or 2 for metals in         |
|     relaxations.                                                            |
|                                                                             |
 -----------------------------------------------------------------------------

       N       E                     dE             d eps       ncg     rms          rms(c)
DAV:   1    -0.791512773405E+03    0.26779E+00   -0.29705E-03  5131   0.315E-01    0.484E-02
RMM:   2    -0.791512389741E+03    0.38366E-03   -0.95799E-04  3571   0.545E-02    0.249E-02
RMM:   3    -0.791512579245E+03   -0.18950E-03   -0.17573E-04  2247   0.237E-02    0.117E-02
RMM:   4    -0.791512498193E+03    0.81052E-04   -0.33445E-05  2083   0.102E-02
   14 T=   170. E= -.78970632E+03 F= -.79151250E+03 E0= -.79151250E+03  EK= 0.24380E+01 SP= -.95E+00 SK= 0.31E+00
Information: wavefunction orthogonal band  231  0.8886
Information: wavefunction orthogonal band  232  0.8979
 bond charge predicted
 prediction of wavefunctions
 -----------------------------------------------------------------------------
|                                                                             |
|           W    W    AA    RRRRR   N    N  II  N    N   GGGG   !!!           |
|           W    W   A  A   R    R  NN   N  II  NN   N  G    G  !!!           |
|           W    W  A    A  R    R  N N  N  II  N N  N  G       !!!           |
|           W WW W  AAAAAA  RRRRR   N  N N  II  N  N N  G  GGG   !            |
|           WW  WW  A    A  R   R   N   NN  II  N   NN  G    G                |
|           W    W  A    A  R    R  N    N  II  N    N   GGGG   !!!           |
|                                                                             |
|     Tetrahedron method does not include variations of the Fermi             |
|     occupations, so forces and stress will be inaccurate. We suggest        |
|     using a different smearing scheme ISMEAR = 1 or 2 for metals in         |
|     relaxations.                                                            |
|                                                                             |
 -----------------------------------------------------------------------------

       N       E                     dE             d eps       ncg     rms          rms(c)
DAV:   1    -0.791252899841E+03    0.25968E+00   -0.22836E-03  5194   0.294E-01    0.176E-02
RMM:   2    -0.791252972898E+03   -0.73057E-04   -0.69773E-04  3255   0.450E-02
   15 T=   163. E= -.78970562E+03 F= -.79125297E+03 E0= -.79125297E+03  EK= 0.23357E+01 SP= -.12E+01 SK= 0.44E+00
Information: wavefunction orthogonal band  231  0.8965
Information: wavefunction orthogonal band  233  0.8390
Information: wavefunction orthogonal band  232  0.8638
 bond charge predicted
 prediction of wavefunctions
 -----------------------------------------------------------------------------
|                                                                             |
|           W    W    AA    RRRRR   N    N  II  N    N   GGGG   !!!           |
|           W    W   A  A   R    R  NN   N  II  NN   N  G    G  !!!           |
|           W    W  A    A  R    R  N N  N  II  N N  N  G       !!!           |
|           W WW W  AAAAAA  RRRRR   N  N N  II  N  N N  G  GGG   !            |
|           WW  WW  A    A  R   R   N   NN  II  N   NN  G    G                |
|           W    W  A    A  R    R  N    N  II  N    N   GGGG   !!!           |
|                                                                             |
|     Tetrahedron method does not include variations of the Fermi             |
|     occupations, so forces and stress will be inaccurate. We suggest        |
|     using a different smearing scheme ISMEAR = 1 or 2 for metals in         |
|     relaxations.                                                            |
|                                                                             |
 -----------------------------------------------------------------------------

       N       E                     dE             d eps       ncg     rms          rms(c)
DAV:   1    -0.791006282065E+03    0.24662E+00   -0.33209E-03  5666   0.287E-01    0.147E-02
RMM:   2    -0.791006123140E+03    0.15892E-03   -0.98414E-04  3628   0.623E-02    0.759E-03
RMM:   3    -0.791006166426E+03   -0.43286E-04   -0.16065E-04  2188   0.248E-02
   16 T=   158. E= -.78970602E+03 F= -.79100617E+03 E0= -.79100617E+03  EK= 0.22654E+01 SP= -.16E+01 SK= 0.59E+00
Information: wavefunction orthogonal band  232  0.8701
 bond charge predicted
 prediction of wavefunctions
 -----------------------------------------------------------------------------
|                                                                             |
|           W    W    AA    RRRRR   N    N  II  N    N   GGGG   !!!           |
|           W    W   A  A   R    R  NN   N  II  NN   N  G    G  !!!           |
|           W    W  A    A  R    R  N N  N  II  N N  N  G       !!!           |
|           W WW W  AAAAAA  RRRRR   N  N N  II  N  N N  G  GGG   !            |
|           WW  WW  A    A  R   R   N   NN  II  N   NN  G    G                |
|           W    W  A    A  R    R  N    N  II  N    N   GGGG   !!!           |
|                                                                             |
|     Tetrahedron method does not include variations of the Fermi             |
|     occupations, so forces and stress will be inaccurate. We suggest        |
|     using a different smearing scheme ISMEAR = 1 or 2 for metals in         |
|     relaxations.                                                            |
|                                                                             |
 -----------------------------------------------------------------------------

       N       E                     dE             d eps       ncg     rms          rms(c)
DAV:   1    -0.790774117219E+03    0.23201E+00   -0.19351E-03  5125   0.277E-01    0.117E-02
RMM:   2    -0.790774309534E+03   -0.19232E-03   -0.78283E-04  3388   0.527E-02    0.596E-03
RMM:   3    -0.790774322432E+03   -0.12898E-04   -0.14594E-04  2174   0.216E-02
   17 T=   156. E= -.78970684E+03 F= -.79077432E+03 E0= -.79077432E+03  EK= 0.22321E+01 SP= -.19E+01 SK= 0.77E+00
Information: wavefunction orthogonal band  232  0.8708
 bond charge predicted
 prediction of wavefunctions
 -----------------------------------------------------------------------------
|                                                                             |
|           W    W    AA    RRRRR   N    N  II  N    N   GGGG   !!!           |
|           W    W   A  A   R    R  NN   N  II  NN   N  G    G  !!!           |
|           W    W  A    A  R    R  N N  N  II  N N  N  G       !!!           |
|           W WW W  AAAAAA  RRRRR   N  N N  II  N  N N  G  GGG   !            |
|           WW  WW  A    A  R   R   N   NN  II  N   NN  G    G                |
|           W    W  A    A  R    R  N    N  II  N    N   GGGG   !!!           |
|                                                                             |
|     Tetrahedron method does not include variations of the Fermi             |
|     occupations, so forces and stress will be inaccurate. We suggest        |
|     using a different smearing scheme ISMEAR = 1 or 2 for metals in         |
|     relaxations.                                                            |
|                                                                             |
 -----------------------------------------------------------------------------

       N       E                     dE             d eps       ncg     rms          rms(c)
DAV:   1    -0.790559604727E+03    0.21470E+00   -0.20798E-03  5018   0.268E-01    0.943E-03
RMM:   2    -0.790559695983E+03   -0.91256E-04   -0.67353E-04  3264   0.458E-02
   18 T=   156. E= -.78970794E+03 F= -.79055970E+03 E0= -.79055970E+03  EK= 0.22413E+01 SP= -.24E+01 SK= 0.98E+00
Information: wavefunction orthogonal band  233  0.8638
Information: wavefunction orthogonal band  229  0.8761
Information: wavefunction orthogonal band  230  0.8788
Information: wavefunction orthogonal band  232  0.8694
 bond charge predicted
 prediction of wavefunctions
 -----------------------------------------------------------------------------
|                                                                             |
|           W    W    AA    RRRRR   N    N  II  N    N   GGGG   !!!           |
|           W    W   A  A   R    R  NN   N  II  NN   N  G    G  !!!           |
|           W    W  A    A  R    R  N N  N  II  N N  N  G       !!!           |
|           W WW W  AAAAAA  RRRRR   N  N N  II  N  N N  G  GGG   !            |
|           WW  WW  A    A  R   R   N   NN  II  N   NN  G    G                |
|           W    W  A    A  R    R  N    N  II  N    N   GGGG   !!!           |
|                                                                             |
|     Tetrahedron method does not include variations of the Fermi             |
|     occupations, so forces and stress will be inaccurate. We suggest        |
|     using a different smearing scheme ISMEAR = 1 or 2 for metals in         |
|     relaxations.                                                            |
|                                                                             |
 -----------------------------------------------------------------------------

       N       E                     dE             d eps       ncg     rms          rms(c)
DAV:   1    -0.790363889777E+03    0.19571E+00   -0.30915E-03  5555   0.275E-01    0.748E-03
RMM:   2    -0.790363986503E+03   -0.96725E-04   -0.92448E-04  3546   0.590E-02
   19 T=   160. E= -.78970919E+03 F= -.79036399E+03 E0= -.79036399E+03  EK= 0.22994E+01 SP= -.29E+01 SK= 0.12E+01
Information: wavefunction orthogonal band  232  0.8756
Information: wavefunction orthogonal band  233  0.8468
Information: wavefunction orthogonal band  233  0.8858
Information: wavefunction orthogonal band  233  0.8797
Information: wavefunction orthogonal band  233  0.8854
 bond charge predicted
 prediction of wavefunctions
 -----------------------------------------------------------------------------
|                                                                             |
|           W    W    AA    RRRRR   N    N  II  N    N   GGGG   !!!           |
|           W    W   A  A   R    R  NN   N  II  NN   N  G    G  !!!           |
|           W    W  A    A  R    R  N N  N  II  N N  N  G       !!!           |
|           W WW W  AAAAAA  RRRRR   N  N N  II  N  N N  G  GGG   !            |
|           WW  WW  A    A  R   R   N   NN  II  N   NN  G    G                |
|           W    W  A    A  R    R  N    N  II  N    N   GGGG   !!!           |
|                                                                             |
|     Tetrahedron method does not include variations of the Fermi             |
|     occupations, so forces and stress will be inaccurate. We suggest        |
|     using a different smearing scheme ISMEAR = 1 or 2 for metals in         |
|     relaxations.                                                            |
|                                                                             |
 -----------------------------------------------------------------------------

       N       E                     dE             d eps       ncg     rms          rms(c)
DAV:   1    -0.790187982706E+03    0.17591E+00   -0.23344E-03  5188   0.287E-01    0.713E-03
RMM:   2    -0.790188092376E+03   -0.10967E-03   -0.11578E-03  3650   0.664E-02    0.680E-03
RMM:   3    -0.790188113388E+03   -0.21012E-04   -0.22918E-04  2314   0.279E-02
   20 T=   168. E= -.78971050E+03 F= -.79018811E+03 E0= -.79018811E+03  EK= 0.24139E+01 SP= -.34E+01 SK= 0.15E+01
Information: wavefunction orthogonal band  232  0.8915
Information: wavefunction orthogonal band  233  0.8672
Information: wavefunction orthogonal band  231  0.8757
Information: wavefunction orthogonal band  232  0.8720
Information: wavefunction orthogonal band  233  0.8533
 bond charge predicted
 prediction of wavefunctions
 -----------------------------------------------------------------------------
|                                                                             |
|           W    W    AA    RRRRR   N    N  II  N    N   GGGG   !!!           |
|           W    W   A  A   R    R  NN   N  II  NN   N  G    G  !!!           |
|           W    W  A    A  R    R  N N  N  II  N N  N  G       !!!           |
|           W WW W  AAAAAA  RRRRR   N  N N  II  N  N N  G  GGG   !            |
|           WW  WW  A    A  R   R   N   NN  II  N   NN  G    G                |
|           W    W  A    A  R    R  N    N  II  N    N   GGGG   !!!           |
|                                                                             |
|     Tetrahedron method does not include variations of the Fermi             |
|     occupations, so forces and stress will be inaccurate. We suggest        |
|     using a different smearing scheme ISMEAR = 1 or 2 for metals in         |
|     relaxations.                                                            |
|                                                                             |
 -----------------------------------------------------------------------------

       N       E                     dE             d eps       ncg     rms          rms(c)
DAV:   1    -0.790031984531E+03    0.15611E+00   -0.26997E-03  5229   0.298E-01    0.861E-03
RMM:   2    -0.790032074686E+03   -0.90155E-04   -0.10058E-03  3578   0.579E-02    0.648E-03
RMM:   3    -0.790032093401E+03   -0.18714E-04   -0.19432E-04  2225   0.247E-02
   21 T=   181. E= -.78971173E+03 F= -.79003209E+03 E0= -.79003209E+03  EK= 0.25933E+01 SP= -.40E+01 SK= 0.17E+01
Information: wavefunction orthogonal band  231  0.8956
Information: wavefunction orthogonal band  231  0.8932
Information: wavefunction orthogonal band  233  0.8662
 bond charge predicted
 prediction of wavefunctions
 -----------------------------------------------------------------------------
|                                                                             |
|           W    W    AA    RRRRR   N    N  II  N    N   GGGG   !!!           |
|           W    W   A  A   R    R  NN   N  II  NN   N  G    G  !!!           |
|           W    W  A    A  R    R  N N  N  II  N N  N  G       !!!           |
|           W WW W  AAAAAA  RRRRR   N  N N  II  N  N N  G  GGG   !            |
|           WW  WW  A    A  R   R   N   NN  II  N   NN  G    G                |
|           W    W  A    A  R    R  N    N  II  N    N   GGGG   !!!           |
|                                                                             |
|     Tetrahedron method does not include variations of the Fermi             |
|     occupations, so forces and stress will be inaccurate. We suggest        |
|     using a different smearing scheme ISMEAR = 1 or 2 for metals in         |
|     relaxations.                                                            |
|                                                                             |
 -----------------------------------------------------------------------------

       N       E                     dE             d eps       ncg     rms          rms(c)
DAV:   1    -0.789894843784E+03    0.13723E+00   -0.29871E-03  5154   0.316E-01    0.141E-02
RMM:   2    -0.789894951543E+03   -0.10776E-03   -0.98004E-04  3565   0.557E-02    0.465E-03
RMM:   3    -0.789894963245E+03   -0.11701E-04   -0.17004E-04  2166   0.239E-02
   22 T=   198. E= -.78971281E+03 F= -.78989496E+03 E0= -.78989496E+03  EK= 0.28471E+01 SP= -.46E+01 SK= 0.19E+01
Information: wavefunction orthogonal band  233  0.8782
Information: wavefunction orthogonal band  232  0.8321
 bond charge predicted
 prediction of wavefunctions
 -----------------------------------------------------------------------------
|                                                                             |
|           W    W    AA    RRRRR   N    N  II  N    N   GGGG   !!!           |
|           W    W   A  A   R    R  NN   N  II  NN   N  G    G  !!!           |
|           W    W  A    A  R    R  N N  N  II  N N  N  G       !!!           |
|           W WW W  AAAAAA  RRRRR   N  N N  II  N  N N  G  GGG   !            |
|           WW  WW  A    A  R   R   N   NN  II  N   NN  G    G                |
|           W    W  A    A  R    R  N    N  II  N    N   GGGG   !!!           |
|                                                                             |
|     Tetrahedron method does not include variations of the Fermi             |
|     occupations, so forces and stress will be inaccurate. We suggest        |
|     using a different smearing scheme ISMEAR = 1 or 2 for metals in         |
|     relaxations.                                                            |
|                                                                             |
 -----------------------------------------------------------------------------

       N       E                     dE             d eps       ncg     rms          rms(c)
DAV:   1    -0.789774410271E+03    0.12054E+00   -0.30747E-03  5219   0.346E-01    0.981E-03
RMM:   2    -0.789774518166E+03   -0.10789E-03   -0.10563E-03  3590   0.565E-02    0.411E-03
RMM:   3    -0.789774528742E+03   -0.10576E-04   -0.18174E-04  2216   0.245E-02
   23 T=   222. E= -.78971374E+03 F= -.78977453E+03 E0= -.78977453E+03  EK= 0.31850E+01 SP= -.52E+01 SK= 0.21E+01
Information: wavefunction orthogonal band  233  0.8993
 bond charge predicted
 prediction of wavefunctions
 -----------------------------------------------------------------------------
|                                                                             |
|           W    W    AA    RRRRR   N    N  II  N    N   GGGG   !!!           |
|           W    W   A  A   R    R  NN   N  II  NN   N  G    G  !!!           |
|           W    W  A    A  R    R  N N  N  II  N N  N  G       !!!           |
|           W WW W  AAAAAA  RRRRR   N  N N  II  N  N N  G  GGG   !            |
|           WW  WW  A    A  R   R   N   NN  II  N   NN  G    G                |
|           W    W  A    A  R    R  N    N  II  N    N   GGGG   !!!           |
|                                                                             |
|     Tetrahedron method does not include variations of the Fermi             |
|     occupations, so forces and stress will be inaccurate. We suggest        |
|     using a different smearing scheme ISMEAR = 1 or 2 for metals in         |
|     relaxations.                                                            |
|                                                                             |
 -----------------------------------------------------------------------------

       N       E                     dE             d eps       ncg     rms          rms(c)
DAV:   1    -0.789666987752E+03    0.10753E+00   -0.32827E-03  5370   0.380E-01    0.615E-03
RMM:   2    -0.789667100668E+03   -0.11292E-03   -0.11456E-03  3597   0.592E-02    0.667E-03
RMM:   3    -0.789667116057E+03   -0.15389E-04   -0.20452E-04  2255   0.260E-02
   24 T=   252. E= -.78971458E+03 F= -.78966712E+03 E0= -.78966712E+03  EK= 0.36159E+01 SP= -.59E+01 SK= 0.23E+01
Information: wavefunction orthogonal band  231  0.8832
Information: wavefunction orthogonal band  232  0.8901
Information: wavefunction orthogonal band  233  0.8301
Information: wavefunction orthogonal band  231  0.8567
 bond charge predicted
 prediction of wavefunctions
 -----------------------------------------------------------------------------
|                                                                             |
|           W    W    AA    RRRRR   N    N  II  N    N   GGGG   !!!           |
|           W    W   A  A   R    R  NN   N  II  NN   N  G    G  !!!           |
|           W    W  A    A  R    R  N N  N  II  N N  N  G       !!!           |
|           W WW W  AAAAAA  RRRRR   N  N N  II  N  N N  G  GGG   !            |
|           WW  WW  A    A  R   R   N   NN  II  N   NN  G    G                |
|           W    W  A    A  R    R  N    N  II  N    N   GGGG   !!!           |
|                                                                             |
|     Tetrahedron method does not include variations of the Fermi             |
|     occupations, so forces and stress will be inaccurate. We suggest        |
|     using a different smearing scheme ISMEAR = 1 or 2 for metals in         |
|     relaxations.                                                            |
|                                                                             |
 -----------------------------------------------------------------------------

       N       E                     dE             d eps       ncg     rms          rms(c)
DAV:   1    -0.789567278254E+03    0.99822E-01   -0.36523E-03  5317   0.421E-01    0.677E-03
RMM:   2    -0.789567404500E+03   -0.12625E-03   -0.13786E-03  3613   0.625E-02    0.101E-02
RMM:   3    -0.789567426614E+03   -0.22114E-04   -0.23612E-04  2362   0.276E-02
   25 T=   289. E= -.78971553E+03 F= -.78956743E+03 E0= -.78956743E+03  EK= 0.41456E+01 SP= -.66E+01 SK= 0.23E+01
Information: wavefunction orthogonal band  233  0.8961
Information: wavefunction orthogonal band  230  0.8706
Information: wavefunction orthogonal band  232  0.8117
Information: wavefunction orthogonal band  232  0.8990
 bond charge predicted
 prediction of wavefunctions
 -----------------------------------------------------------------------------
|                                                                             |
|           W    W    AA    RRRRR   N    N  II  N    N   GGGG   !!!           |
|           W    W   A  A   R    R  NN   N  II  NN   N  G    G  !!!           |
|           W    W  A    A  R    R  N N  N  II  N N  N  G       !!!           |
|           W WW W  AAAAAA  RRRRR   N  N N  II  N  N N  G  GGG   !            |
|           WW  WW  A    A  R   R   N   NN  II  N   NN  G    G                |
|           W    W  A    A  R    R  N    N  II  N    N   GGGG   !!!           |
|                                                                             |
|     Tetrahedron method does not include variations of the Fermi             |
|     occupations, so forces and stress will be inaccurate. We suggest        |
|     using a different smearing scheme ISMEAR = 1 or 2 for metals in         |
|     relaxations.                                                            |
|                                                                             |
 -----------------------------------------------------------------------------

       N       E                     dE             d eps       ncg     rms          rms(c)
DAV:   1    -0.789468116624E+03    0.99288E-01   -0.46366E-03  5451   0.465E-01    0.830E-03
RMM:   2    -0.789468277986E+03   -0.16136E-03   -0.16812E-03  3671   0.708E-02    0.128E-02
RMM:   3    -0.789468307977E+03   -0.29991E-04   -0.29307E-04  2510   0.310E-02
   26 T=   333. E= -.78971683E+03 F= -.78946831E+03 E0= -.78946831E+03  EK= 0.47735E+01 SP= -.73E+01 SK= 0.23E+01
Information: wavefunction orthogonal band  232  0.8249
Information: wavefunction orthogonal band  229  0.8913
Information: wavefunction orthogonal band  233  0.8878
Information: wavefunction orthogonal band  230  0.8983
Information: wavefunction orthogonal band  233  0.8628
 bond charge predicted
 prediction of wavefunctions
 -----------------------------------------------------------------------------
|                                                                             |
|           W    W    AA    RRRRR   N    N  II  N    N   GGGG   !!!           |
|           W    W   A  A   R    R  NN   N  II  NN   N  G    G  !!!           |
|           W    W  A    A  R    R  N N  N  II  N N  N  G       !!!           |
|           W WW W  AAAAAA  RRRRR   N  N N  II  N  N N  G  GGG   !            |
|           WW  WW  A    A  R   R   N   NN  II  N   NN  G    G                |
|           W    W  A    A  R    R  N    N  II  N    N   GGGG   !!!           |
|                                                                             |
|     Tetrahedron method does not include variations of the Fermi             |
|     occupations, so forces and stress will be inaccurate. We suggest        |
|     using a different smearing scheme ISMEAR = 1 or 2 for metals in         |
|     relaxations.                                                            |
|                                                                             |
 -----------------------------------------------------------------------------

       N       E                     dE             d eps       ncg     rms          rms(c)
DAV:   1    -0.789360574291E+03    0.10770E+00   -0.42695E-03  5467   0.512E-01    0.105E-02
RMM:   2    -0.789360750991E+03   -0.17670E-03   -0.19640E-03  3670   0.741E-02    0.153E-02
RMM:   3    -0.789360786720E+03   -0.35729E-04   -0.34448E-04  2651   0.330E-02
   27 T=   383. E= -.78971881E+03 F= -.78936079E+03 E0= -.78936079E+03  EK= 0.54883E+01 SP= -.80E+01 SK= 0.22E+01
Information: wavefunction orthogonal band  227  0.8956
Information: wavefunction orthogonal band  230  0.8985
Information: wavefunction orthogonal band  231  0.8655
Information: wavefunction orthogonal band  232  0.8907
 bond charge predicted
 prediction of wavefunctions
 -----------------------------------------------------------------------------
|                                                                             |
|           W    W    AA    RRRRR   N    N  II  N    N   GGGG   !!!           |
|           W    W   A  A   R    R  NN   N  II  NN   N  G    G  !!!           |
|           W    W  A    A  R    R  N N  N  II  N N  N  G       !!!           |
|           W WW W  AAAAAA  RRRRR   N  N N  II  N  N N  G  GGG   !            |
|           WW  WW  A    A  R   R   N   NN  II  N   NN  G    G                |
|           W    W  A    A  R    R  N    N  II  N    N   GGGG   !!!           |
|                                                                             |
|     Tetrahedron method does not include variations of the Fermi             |
|     occupations, so forces and stress will be inaccurate. We suggest        |
|     using a different smearing scheme ISMEAR = 1 or 2 for metals in         |
|     relaxations.                                                            |
|                                                                             |
 -----------------------------------------------------------------------------

       N       E                     dE             d eps       ncg     rms          rms(c)
DAV:   1    -0.789233998087E+03    0.12675E+00   -0.55108E-03  5432   0.559E-01    0.120E-02
RMM:   2    -0.789234234737E+03   -0.23665E-03   -0.22995E-03  3675   0.815E-02    0.160E-02
RMM:   3    -0.789234272123E+03   -0.37386E-04   -0.39617E-04  2806   0.359E-02
   28 T=   437. E= -.78972175E+03 F= -.78923427E+03 E0= -.78923427E+03  EK= 0.62636E+01 SP= -.87E+01 SK= 0.19E+01
Information: wavefunction orthogonal band  231  0.8865
Information: wavefunction orthogonal band  232  0.8815
Information: wavefunction orthogonal band  233  0.8992
Information: wavefunction orthogonal band  233  0.8555
 bond charge predicted
 prediction of wavefunctions
 -----------------------------------------------------------------------------
|                                                                             |
|           W    W    AA    RRRRR   N    N  II  N    N   GGGG   !!!           |
|           W    W   A  A   R    R  NN   N  II  NN   N  G    G  !!!           |
|           W    W  A    A  R    R  N N  N  II  N N  N  G       !!!           |
|           W WW W  AAAAAA  RRRRR   N  N N  II  N  N N  G  GGG   !            |
|           WW  WW  A    A  R   R   N   NN  II  N   NN  G    G                |
|           W    W  A    A  R    R  N    N  II  N    N   GGGG   !!!           |
|                                                                             |
|     Tetrahedron method does not include variations of the Fermi             |
|     occupations, so forces and stress will be inaccurate. We suggest        |
|     using a different smearing scheme ISMEAR = 1 or 2 for metals in         |
|     relaxations.                                                            |
|                                                                             |
 -----------------------------------------------------------------------------

       N       E                     dE             d eps       ncg     rms          rms(c)
DAV:   1    -0.789076900500E+03    0.15733E+00   -0.54132E-03  5595   0.604E-01    0.172E-02
RMM:   2    -0.789077189545E+03   -0.28904E-03   -0.26379E-03  3708   0.872E-02    0.116E-02
RMM:   3    -0.789077221647E+03   -0.32102E-04   -0.45844E-04  2943   0.385E-02
   29 T=   492. E= -.78972563E+03 F= -.78907722E+03 E0= -.78907722E+03  EK= 0.70541E+01 SP= -.93E+01 SK= 0.16E+01
Information: wavefunction orthogonal band  228  0.8989
Information: wavefunction orthogonal band  231  0.8815
 bond charge predicted
 prediction of wavefunctions
 -----------------------------------------------------------------------------
|                                                                             |
|           W    W    AA    RRRRR   N    N  II  N    N   GGGG   !!!           |
|           W    W   A  A   R    R  NN   N  II  NN   N  G    G  !!!           |
|           W    W  A    A  R    R  N N  N  II  N N  N  G       !!!           |
|           W WW W  AAAAAA  RRRRR   N  N N  II  N  N N  G  GGG   !            |
|           WW  WW  A    A  R   R   N   NN  II  N   NN  G    G                |
|           W    W  A    A  R    R  N    N  II  N    N   GGGG   !!!           |
|                                                                             |
|     Tetrahedron method does not include variations of the Fermi             |
|     occupations, so forces and stress will be inaccurate. We suggest        |
|     using a different smearing scheme ISMEAR = 1 or 2 for metals in         |
|     relaxations.                                                            |
|                                                                             |
 -----------------------------------------------------------------------------

       N       E                     dE             d eps       ncg     rms          rms(c)
DAV:   1    -0.788878008932E+03    0.19918E+00   -0.66953E-03  5579   0.647E-01    0.272E-02
RMM:   2    -0.788878313298E+03   -0.30437E-03   -0.28753E-03  3714   0.924E-02    0.547E-03
RMM:   3    -0.788878338285E+03   -0.24987E-04   -0.49601E-04  3074   0.402E-02
   30 T=   543. E= -.78973009E+03 F= -.78887834E+03 E0= -.78887834E+03  EK= 0.77960E+01 SP= -.99E+01 SK= 0.12E+01
Information: wavefunction orthogonal band  232  0.8934
Information: wavefunction orthogonal band  233  0.8784
Information: wavefunction orthogonal band  233  0.8948
 bond charge predicted
 prediction of wavefunctions
 -----------------------------------------------------------------------------
|                                                                             |
|           W    W    AA    RRRRR   N    N  II  N    N   GGGG   !!!           |
|           W    W   A  A   R    R  NN   N  II  NN   N  G    G  !!!           |
|           W    W  A    A  R    R  N N  N  II  N N  N  G       !!!           |
|           W WW W  AAAAAA  RRRRR   N  N N  II  N  N N  G  GGG   !            |
|           WW  WW  A    A  R   R   N   NN  II  N   NN  G    G                |
|           W    W  A    A  R    R  N    N  II  N    N   GGGG   !!!           |
|                                                                             |
|     Tetrahedron method does not include variations of the Fermi             |
|     occupations, so forces and stress will be inaccurate. We suggest        |
|     using a different smearing scheme ISMEAR = 1 or 2 for metals in         |
|     relaxations.                                                            |
|                                                                             |
 -----------------------------------------------------------------------------

       N       E                     dE             d eps       ncg     rms          rms(c)
DAV:   1    -0.788627346673E+03    0.25097E+00   -0.38110E-03  5548   0.680E-01    0.323E-02
RMM:   2    -0.788627776206E+03   -0.42953E-03   -0.32848E-03  3718   0.984E-02    0.170E-02
RMM:   3    -0.788627800098E+03   -0.23892E-04   -0.56361E-04  3213   0.429E-02
   31 T=   586. E= -.78973413E+03 F= -.78862780E+03 E0= -.78862780E+03  EK= 0.84124E+01 SP= -.10E+02 SK= 0.81E+00
Information: wavefunction orthogonal band  230  0.8807
Information: wavefunction orthogonal band  232  0.8949
Information: wavefunction orthogonal band  233  0.8837
Information: wavefunction orthogonal band  233  0.8254
Information: wavefunction orthogonal band  231  0.8967
 bond charge predicted
 prediction of wavefunctions
 -----------------------------------------------------------------------------
|                                                                             |
|           W    W    AA    RRRRR   N    N  II  N    N   GGGG   !!!           |
|           W    W   A  A   R    R  NN   N  II  NN   N  G    G  !!!           |
|           W    W  A    A  R    R  N N  N  II  N N  N  G       !!!           |
|           W WW W  AAAAAA  RRRRR   N  N N  II  N  N N  G  GGG   !            |
|           WW  WW  A    A  R   R   N   NN  II  N   NN  G    G                |
|           W    W  A    A  R    R  N    N  II  N    N   GGGG   !!!           |
|                                                                             |
|     Tetrahedron method does not include variations of the Fermi             |
|     occupations, so forces and stress will be inaccurate. We suggest        |
|     using a different smearing scheme ISMEAR = 1 or 2 for metals in         |
|     relaxations.                                                            |
|                                                                             |
 -----------------------------------------------------------------------------

       N       E                     dE             d eps       ncg     rms          rms(c)
DAV:   1    -0.788320265109E+03    0.30751E+00   -0.77928E-03  5828   0.708E-01    0.528E-02
RMM:   2    -0.788320200238E+03    0.64871E-04   -0.36384E-03  3731   0.103E-01    0.263E-02
RMM:   3    -0.788320207494E+03   -0.72565E-05   -0.70996E-04  3434   0.466E-02
   32 T=   615. E= -.78973686E+03 F= -.78832021E+03 E0= -.78832021E+03  EK= 0.88269E+01 SP= -.11E+02 SK= 0.45E+00
Information: wavefunction orthogonal band  230  0.8925
Information: wavefunction orthogonal band  232  0.8958
 bond charge predicted
 prediction of wavefunctions
 -----------------------------------------------------------------------------
|                                                                             |
|           W    W    AA    RRRRR   N    N  II  N    N   GGGG   !!!           |
|           W    W   A  A   R    R  NN   N  II  NN   N  G    G  !!!           |
|           W    W  A    A  R    R  N N  N  II  N N  N  G       !!!           |
|           W WW W  AAAAAA  RRRRR   N  N N  II  N  N N  G  GGG   !            |
|           WW  WW  A    A  R   R   N   NN  II  N   NN  G    G                |
|           W    W  A    A  R    R  N    N  II  N    N   GGGG   !!!           |
|                                                                             |
|     Tetrahedron method does not include variations of the Fermi             |
|     occupations, so forces and stress will be inaccurate. We suggest        |
|     using a different smearing scheme ISMEAR = 1 or 2 for metals in         |
|     relaxations.                                                            |
|                                                                             |
 -----------------------------------------------------------------------------

       N       E                     dE             d eps       ncg     rms          rms(c)
DAV:   1    -0.787955134228E+03    0.36507E+00   -0.90767E-03  5699   0.714E-01    0.337E-02
RMM:   2    -0.787955645815E+03   -0.51159E-03   -0.37852E-03  3734   0.108E-01    0.164E-02
RMM:   3    -0.787955668524E+03   -0.22708E-04   -0.62957E-04  3293   0.465E-02
   33 T=   626. E= -.78973706E+03 F= -.78795567E+03 E0= -.78795567E+03  EK= 0.89817E+01 SP= -.11E+02 SK= 0.18E+00
Information: wavefunction orthogonal band  229  0.8902
Information: wavefunction orthogonal band  230  0.8951
Information: wavefunction orthogonal band  233  0.8928
Information: wavefunction orthogonal band  232  0.8886
 bond charge predicted
 prediction of wavefunctions
 -----------------------------------------------------------------------------
|                                                                             |
|           W    W    AA    RRRRR   N    N  II  N    N   GGGG   !!!           |
|           W    W   A  A   R    R  NN   N  II  NN   N  G    G  !!!           |
|           W    W  A    A  R    R  N N  N  II  N N  N  G       !!!           |
|           W WW W  AAAAAA  RRRRR   N  N N  II  N  N N  G  GGG   !            |
|           WW  WW  A    A  R   R   N   NN  II  N   NN  G    G                |
|           W    W  A    A  R    R  N    N  II  N    N   GGGG   !!!           |
|                                                                             |
|     Tetrahedron method does not include variations of the Fermi             |
|     occupations, so forces and stress will be inaccurate. We suggest        |
|     using a different smearing scheme ISMEAR = 1 or 2 for metals in         |
|     relaxations.                                                            |
|                                                                             |
 -----------------------------------------------------------------------------

       N       E                     dE             d eps       ncg     rms          rms(c)
DAV:   1    -0.787540562179E+03    0.41508E+00   -0.83193E-03  5785   0.707E-01    0.319E-02
RMM:   2    -0.787541040567E+03   -0.47839E-03   -0.38657E-03  3734   0.107E-01    0.153E-02
RMM:   3    -0.787541081033E+03   -0.40466E-04   -0.63900E-04  3305   0.461E-02
   34 T=   617. E= -.78973406E+03 F= -.78754108E+03 E0= -.78754108E+03  EK= 0.88526E+01 SP= -.11E+02 SK= 0.30E-01
 bond charge predicted
 prediction of wavefunctions
 -----------------------------------------------------------------------------
|                                                                             |
|           W    W    AA    RRRRR   N    N  II  N    N   GGGG   !!!           |
|           W    W   A  A   R    R  NN   N  II  NN   N  G    G  !!!           |
|           W    W  A    A  R    R  N N  N  II  N N  N  G       !!!           |
|           W WW W  AAAAAA  RRRRR   N  N N  II  N  N N  G  GGG   !            |
|           WW  WW  A    A  R   R   N   NN  II  N   NN  G    G                |
|           W    W  A    A  R    R  N    N  II  N    N   GGGG   !!!           |
|                                                                             |
|     Tetrahedron method does not include variations of the Fermi             |
|     occupations, so forces and stress will be inaccurate. We suggest        |
|     using a different smearing scheme ISMEAR = 1 or 2 for metals in         |
|     relaxations.                                                            |
|                                                                             |
 -----------------------------------------------------------------------------

       N       E                     dE             d eps       ncg     rms          rms(c)
DAV:   1    -0.787089854187E+03    0.45119E+00   -0.10387E-02  5490   0.691E-01    0.254E-02
RMM:   2    -0.787090285891E+03   -0.43170E-03   -0.38032E-03  3730   0.110E-01    0.136E-02
RMM:   3    -0.787090312108E+03   -0.26218E-04   -0.61268E-04  3256   0.463E-02
   35 T=   589. E= -.78972811E+03 F= -.78709031E+03 E0= -.78709031E+03  EK= 0.84575E+01 SP= -.11E+02 SK= 0.37E-02
Information: wavefunction orthogonal band  231  0.8259
Information: wavefunction orthogonal band  232  0.8889
Information: wavefunction orthogonal band  233  0.8882
Information: wavefunction orthogonal band  231  0.8923
Information: wavefunction orthogonal band  233  0.8875
Information: wavefunction orthogonal band  228  0.8900
Information: wavefunction orthogonal band  232  0.8983
Information: wavefunction orthogonal band  233  0.8436
 bond charge predicted
 prediction of wavefunctions
 -----------------------------------------------------------------------------
|                                                                             |
|           W    W    AA    RRRRR   N    N  II  N    N   GGGG   !!!           |
|           W    W   A  A   R    R  NN   N  II  NN   N  G    G  !!!           |
|           W    W  A    A  R    R  N N  N  II  N N  N  G       !!!           |
|           W WW W  AAAAAA  RRRRR   N  N N  II  N  N N  G  GGG   !            |
|           WW  WW  A    A  R   R   N   NN  II  N   NN  G    G                |
|           W    W  A    A  R    R  N    N  II  N    N   GGGG   !!!           |
|                                                                             |
|     Tetrahedron method does not include variations of the Fermi             |
|     occupations, so forces and stress will be inaccurate. We suggest        |
|     using a different smearing scheme ISMEAR = 1 or 2 for metals in         |
|     relaxations.                                                            |
|                                                                             |
 -----------------------------------------------------------------------------

       N       E                     dE             d eps       ncg     rms          rms(c)
DAV:   1    -0.786622154903E+03    0.46813E+00   -0.72703E-03  5814   0.664E-01    0.349E-02
RMM:   2    -0.786622362832E+03   -0.20793E-03   -0.38345E-03  3730   0.105E-01    0.169E-02
RMM:   3    -0.786622422172E+03   -0.59340E-04   -0.64521E-04  3303   0.458E-02
   36 T=   547. E= -.78972009E+03 F= -.78662242E+03 E0= -.78662242E+03  EK= 0.78511E+01 SP= -.11E+02 SK= 0.71E-01
Information: wavefunction orthogonal band  229  0.8899
Information: wavefunction orthogonal band  229  0.8967
 bond charge predicted
 prediction of wavefunctions
 -----------------------------------------------------------------------------
|                                                                             |
|           W    W    AA    RRRRR   N    N  II  N    N   GGGG   !!!           |
|           W    W   A  A   R    R  NN   N  II  NN   N  G    G  !!!           |
|           W    W  A    A  R    R  N N  N  II  N N  N  G       !!!           |
|           W WW W  AAAAAA  RRRRR   N  N N  II  N  N N  G  GGG   !            |
|           WW  WW  A    A  R   R   N   NN  II  N   NN  G    G                |
|           W    W  A    A  R    R  N    N  II  N    N   GGGG   !!!           |
|                                                                             |
|     Tetrahedron method does not include variations of the Fermi             |
|     occupations, so forces and stress will be inaccurate. We suggest        |
|     using a different smearing scheme ISMEAR = 1 or 2 for metals in         |
|     relaxations.                                                            |
|                                                                             |
 -----------------------------------------------------------------------------

       N       E                     dE             d eps       ncg     rms          rms(c)
DAV:   1    -0.786159200077E+03    0.46316E+00   -0.10002E-02  5716   0.622E-01    0.262E-02
RMM:   2    -0.786159669003E+03   -0.46893E-03   -0.35537E-03  3729   0.106E-01    0.140E-02
RMM:   3    -0.786159715273E+03   -0.46270E-04   -0.59633E-04  3169   0.447E-02
   37 T=   496. E= -.78971137E+03 F= -.78615972E+03 E0= -.78615972E+03  EK= 0.71112E+01 SP= -.11E+02 SK= 0.19E+00
Information: wavefunction orthogonal band  233  0.8492
Information: wavefunction orthogonal band  232  0.8900
Information: wavefunction orthogonal band  229  0.8707
Information: wavefunction orthogonal band  233  0.8793
Information: wavefunction orthogonal band  233  0.8817
 bond charge predicted
 prediction of wavefunctions
 -----------------------------------------------------------------------------
|                                                                             |
|           W    W    AA    RRRRR   N    N  II  N    N   GGGG   !!!           |
|           W    W   A  A   R    R  NN   N  II  NN   N  G    G  !!!           |
|           W    W  A    A  R    R  N N  N  II  N N  N  G       !!!           |
|           W WW W  AAAAAA  RRRRR   N  N N  II  N  N N  G  GGG   !            |
|           WW  WW  A    A  R   R   N   NN  II  N   NN  G    G                |
|           W    W  A    A  R    R  N    N  II  N    N   GGGG   !!!           |
|                                                                             |
|     Tetrahedron method does not include variations of the Fermi             |
|     occupations, so forces and stress will be inaccurate. We suggest        |
|     using a different smearing scheme ISMEAR = 1 or 2 for metals in         |
|     relaxations.                                                            |
|                                                                             |
 -----------------------------------------------------------------------------

       N       E                     dE             d eps       ncg     rms          rms(c)
DAV:   1    -0.785724359496E+03    0.43531E+00   -0.82594E-03  5667   0.577E-01    0.216E-02
RMM:   2    -0.785724761965E+03   -0.40247E-03   -0.29830E-03  3728   0.991E-02    0.120E-02
RMM:   3    -0.785724787769E+03   -0.25804E-04   -0.50616E-04  3057   0.418E-02
   38 T=   440. E= -.78970308E+03 F= -.78572479E+03 E0= -.78572479E+03  EK= 0.63200E+01 SP= -.11E+02 SK= 0.32E+00
Information: wavefunction orthogonal band  230  0.8635
Information: wavefunction orthogonal band  231  0.8440
Information: wavefunction orthogonal band  232  0.8582
 bond charge predicted
 prediction of wavefunctions
 -----------------------------------------------------------------------------
|                                                                             |
|           W    W    AA    RRRRR   N    N  II  N    N   GGGG   !!!           |
|           W    W   A  A   R    R  NN   N  II  NN   N  G    G  !!!           |
|           W    W  A    A  R    R  N N  N  II  N N  N  G       !!!           |
|           W WW W  AAAAAA  RRRRR   N  N N  II  N  N N  G  GGG   !            |
|           WW  WW  A    A  R   R   N   NN  II  N   NN  G    G                |
|           W    W  A    A  R    R  N    N  II  N    N   GGGG   !!!           |
|                                                                             |
|     Tetrahedron method does not include variations of the Fermi             |
|     occupations, so forces and stress will be inaccurate. We suggest        |
|     using a different smearing scheme ISMEAR = 1 or 2 for metals in         |
|     relaxations.                                                            |
|                                                                             |
 -----------------------------------------------------------------------------

       N       E                     dE             d eps       ncg     rms          rms(c)
DAV:   1    -0.785337567017E+03    0.38719E+00   -0.69446E-03  5620   0.527E-01    0.176E-02
RMM:   2    -0.785337876787E+03   -0.30977E-03   -0.26284E-03  3727   0.916E-02    0.125E-02
RMM:   3    -0.785337901958E+03   -0.25171E-04   -0.44861E-04  2881   0.389E-02
   39 T=   387. E= -.78969592E+03 F= -.78533790E+03 E0= -.78533790E+03  EK= 0.55495E+01 SP= -.10E+02 SK= 0.43E+00
Information: wavefunction orthogonal band  233  0.8932
Information: wavefunction orthogonal band  230  0.8962
Information: wavefunction orthogonal band  233  0.8625
 bond charge predicted
 prediction of wavefunctions
 -----------------------------------------------------------------------------
|                                                                             |
|           W    W    AA    RRRRR   N    N  II  N    N   GGGG   !!!           |
|           W    W   A  A   R    R  NN   N  II  NN   N  G    G  !!!           |
|           W    W  A    A  R    R  N N  N  II  N N  N  G       !!!           |
|           W WW W  AAAAAA  RRRRR   N  N N  II  N  N N  G  GGG   !            |
|           WW  WW  A    A  R   R   N   NN  II  N   NN  G    G                |
|           W    W  A    A  R    R  N    N  II  N    N   GGGG   !!!           |
|                                                                             |
|     Tetrahedron method does not include variations of the Fermi             |
|     occupations, so forces and stress will be inaccurate. We suggest        |
|     using a different smearing scheme ISMEAR = 1 or 2 for metals in         |
|     relaxations.                                                            |
|                                                                             |
 -----------------------------------------------------------------------------

       N       E                     dE             d eps       ncg     rms          rms(c)
DAV:   1    -0.785014990745E+03    0.32289E+00   -0.59531E-03  5579   0.480E-01    0.150E-02
RMM:   2    -0.785015264591E+03   -0.27385E-03   -0.21058E-03  3728   0.837E-02    0.107E-02
RMM:   3    -0.785015284093E+03   -0.19502E-04   -0.36930E-04  2713   0.354E-02
   40 T=   338. E= -.78969022E+03 F= -.78501528E+03 E0= -.78501528E+03  EK= 0.48528E+01 SP= -.10E+02 SK= 0.49E+00
Information: wavefunction orthogonal band  231  0.8943
Information: wavefunction orthogonal band  231  0.8920
Information: wavefunction orthogonal band  231  0.8801
 bond charge predicted
 prediction of wavefunctions
 -----------------------------------------------------------------------------
|                                                                             |
|           W    W    AA    RRRRR   N    N  II  N    N   GGGG   !!!           |
|           W    W   A  A   R    R  NN   N  II  NN   N  G    G  !!!           |
|           W    W  A    A  R    R  N N  N  II  N N  N  G       !!!           |
|           W WW W  AAAAAA  RRRRR   N  N N  II  N  N N  G  GGG   !            |
|           WW  WW  A    A  R   R   N   NN  II  N   NN  G    G                |
|           W    W  A    A  R    R  N    N  II  N    N   GGGG   !!!           |
|                                                                             |
[...]
|           W    W  A    A  R    R  N N  N  II  N N  N  G       !!!           |
|           W WW W  AAAAAA  RRRRR   N  N N  II  N  N N  G  GGG   !            |
|           WW  WW  A    A  R   R   N   NN  II  N   NN  G    G                |
|           W    W  A    A  R    R  N    N  II  N    N   GGGG   !!!           |
|                                                                             |
|     Tetrahedron method does not include variations of the Fermi             |
|     occupations, so forces and stress will be inaccurate. We suggest        |
|     using a different smearing scheme ISMEAR = 1 or 2 for metals in         |
|     relaxations.                                                            |
|                                                                             |
 -----------------------------------------------------------------------------

       N       E                     dE             d eps       ncg     rms          rms(c)
DAV:   1    -0.788954384125E+03    0.50482E-01   -0.40390E-03  5304   0.421E-01    0.102E-02
RMM:   2    -0.788954543854E+03   -0.15973E-03   -0.13851E-03  3596   0.633E-02    0.923E-03
RMM:   3    -0.788954560496E+03   -0.16642E-04   -0.23551E-04  2375   0.277E-02
  291 T=   266. E= -.78965191E+03 F= -.78895456E+03 E0= -.78895456E+03  EK= 0.38192E+01 SP= -.45E+01 SK= 0.20E-02
Information: wavefunction orthogonal band  233  0.8849
Information: wavefunction orthogonal band  231  0.8722
Information: wavefunction orthogonal band  232  0.8891
Information: wavefunction orthogonal band  232  0.8735
Information: wavefunction orthogonal band  231  0.8354
 bond charge predicted
 prediction of wavefunctions
 -----------------------------------------------------------------------------
|                                                                             |
|           W    W    AA    RRRRR   N    N  II  N    N   GGGG   !!!           |
|           W    W   A  A   R    R  NN   N  II  NN   N  G    G  !!!           |
|           W    W  A    A  R    R  N N  N  II  N N  N  G       !!!           |
|           W WW W  AAAAAA  RRRRR   N  N N  II  N  N N  G  GGG   !            |
|           WW  WW  A    A  R   R   N   NN  II  N   NN  G    G                |
|           W    W  A    A  R    R  N    N  II  N    N   GGGG   !!!           |
|                                                                             |
|     Tetrahedron method does not include variations of the Fermi             |
|     occupations, so forces and stress will be inaccurate. We suggest        |
|     using a different smearing scheme ISMEAR = 1 or 2 for metals in         |
|     relaxations.                                                            |
|                                                                             |
 -----------------------------------------------------------------------------

       N       E                     dE             d eps       ncg     rms          rms(c)
DAV:   1    -0.788918493249E+03    0.36051E-01   -0.28861E-03  5409   0.415E-01    0.860E-03
RMM:   2    -0.788918641376E+03   -0.14813E-03   -0.13233E-03  3591   0.602E-02    0.652E-03
RMM:   3    -0.788918659782E+03   -0.18406E-04   -0.23708E-04  2379   0.268E-02
  292 T=   265. E= -.78965193E+03 F= -.78891866E+03 E0= -.78891866E+03  EK= 0.38070E+01 SP= -.45E+01 SK= 0.51E-02
Information: wavefunction orthogonal band  232  0.8719
Information: wavefunction orthogonal band  233  0.8704
 bond charge predicted
 prediction of wavefunctions
 -----------------------------------------------------------------------------
|                                                                             |
|           W    W    AA    RRRRR   N    N  II  N    N   GGGG   !!!           |
|           W    W   A  A   R    R  NN   N  II  NN   N  G    G  !!!           |
|           W    W  A    A  R    R  N N  N  II  N N  N  G       !!!           |
|           W WW W  AAAAAA  RRRRR   N  N N  II  N  N N  G  GGG   !            |
|           WW  WW  A    A  R   R   N   NN  II  N   NN  G    G                |
|           W    W  A    A  R    R  N    N  II  N    N   GGGG   !!!           |
|                                                                             |
|     Tetrahedron method does not include variations of the Fermi             |
|     occupations, so forces and stress will be inaccurate. We suggest        |
|     using a different smearing scheme ISMEAR = 1 or 2 for metals in         |
|     relaxations.                                                            |
|                                                                             |
 -----------------------------------------------------------------------------

       N       E                     dE             d eps       ncg     rms          rms(c)
DAV:   1    -0.788898956950E+03    0.19684E-01   -0.34917E-03  5301   0.410E-01    0.102E-02
RMM:   2    -0.788899095223E+03   -0.13827E-03   -0.13143E-03  3583   0.602E-02    0.576E-03
RMM:   3    -0.788899111002E+03   -0.15779E-04   -0.22530E-04  2372   0.265E-02
  293 T=   266. E= -.78965234E+03 F= -.78889911E+03 E0= -.78889911E+03  EK= 0.38216E+01 SP= -.46E+01 SK= 0.95E-02
Information: wavefunction orthogonal band  233  0.8828
Information: wavefunction orthogonal band  232  0.8903
Information: wavefunction orthogonal band  233  0.8406
Information: wavefunction orthogonal band  231  0.8578
 bond charge predicted
 prediction of wavefunctions
 -----------------------------------------------------------------------------
|                                                                             |
|           W    W    AA    RRRRR   N    N  II  N    N   GGGG   !!!           |
|           W    W   A  A   R    R  NN   N  II  NN   N  G    G  !!!           |
|           W    W  A    A  R    R  N N  N  II  N N  N  G       !!!           |
|           W WW W  AAAAAA  RRRRR   N  N N  II  N  N N  G  GGG   !            |
|           WW  WW  A    A  R   R   N   NN  II  N   NN  G    G                |
|           W    W  A    A  R    R  N    N  II  N    N   GGGG   !!!           |
|                                                                             |
|     Tetrahedron method does not include variations of the Fermi             |
|     occupations, so forces and stress will be inaccurate. We suggest        |
|     using a different smearing scheme ISMEAR = 1 or 2 for metals in         |
|     relaxations.                                                            |
|                                                                             |
 -----------------------------------------------------------------------------

       N       E                     dE             d eps       ncg     rms          rms(c)
DAV:   1    -0.788897090292E+03    0.20049E-02   -0.30340E-03  5363   0.409E-01    0.816E-03
RMM:   2    -0.788897221891E+03   -0.13160E-03   -0.12368E-03  3536   0.587E-02    0.600E-03
RMM:   3    -0.788897239276E+03   -0.17385E-04   -0.21806E-04  2354   0.259E-02
  294 T=   269. E= -.78965318E+03 F= -.78889724E+03 E0= -.78889724E+03  EK= 0.38644E+01 SP= -.46E+01 SK= 0.15E-01
Information: wavefunction orthogonal band  228  0.8861
Information: wavefunction orthogonal band  229  0.8733
Information: wavefunction orthogonal band  231  0.8910
Information: wavefunction orthogonal band  232  0.8742
 bond charge predicted
 prediction of wavefunctions
 -----------------------------------------------------------------------------
|                                                                             |
|           W    W    AA    RRRRR   N    N  II  N    N   GGGG   !!!           |
|           W    W   A  A   R    R  NN   N  II  NN   N  G    G  !!!           |
|           W    W  A    A  R    R  N N  N  II  N N  N  G       !!!           |
|           W WW W  AAAAAA  RRRRR   N  N N  II  N  N N  G  GGG   !            |
|           WW  WW  A    A  R   R   N   NN  II  N   NN  G    G                |
|           W    W  A    A  R    R  N    N  II  N    N   GGGG   !!!           |
|                                                                             |
|     Tetrahedron method does not include variations of the Fermi             |
|     occupations, so forces and stress will be inaccurate. We suggest        |
|     using a different smearing scheme ISMEAR = 1 or 2 for metals in         |
|     relaxations.                                                            |
|                                                                             |
 -----------------------------------------------------------------------------

       N       E                     dE             d eps       ncg     rms          rms(c)
DAV:   1    -0.788913523356E+03   -0.16301E-01   -0.30668E-03  5299   0.411E-01    0.616E-03
RMM:   2    -0.788913660040E+03   -0.13668E-03   -0.11866E-03  3531   0.577E-02    0.742E-03
RMM:   3    -0.788913675690E+03   -0.15650E-04   -0.20385E-04  2300   0.253E-02
  295 T=   274. E= -.78965440E+03 F= -.78891368E+03 E0= -.78891368E+03  EK= 0.39357E+01 SP= -.47E+01 SK= 0.21E-01
Information: wavefunction orthogonal band  233  0.8643
Information: wavefunction orthogonal band  231  0.8811
Information: wavefunction orthogonal band  232  0.8787
 bond charge predicted
 prediction of wavefunctions
 -----------------------------------------------------------------------------
|                                                                             |
|           W    W    AA    RRRRR   N    N  II  N    N   GGGG   !!!           |
|           W    W   A  A   R    R  NN   N  II  NN   N  G    G  !!!           |
|           W    W  A    A  R    R  N N  N  II  N N  N  G       !!!           |
|           W WW W  AAAAAA  RRRRR   N  N N  II  N  N N  G  GGG   !            |
|           WW  WW  A    A  R   R   N   NN  II  N   NN  G    G                |
|           W    W  A    A  R    R  N    N  II  N    N   GGGG   !!!           |
|                                                                             |
|     Tetrahedron method does not include variations of the Fermi             |
|     occupations, so forces and stress will be inaccurate. We suggest        |
|     using a different smearing scheme ISMEAR = 1 or 2 for metals in         |
|     relaxations.                                                            |
|                                                                             |
 -----------------------------------------------------------------------------

       N       E                     dE             d eps       ncg     rms          rms(c)
DAV:   1    -0.788948387880E+03   -0.34728E-01   -0.24890E-03  5347   0.414E-01    0.666E-03
RMM:   2    -0.788948501000E+03   -0.11312E-03   -0.11339E-03  3459   0.555E-02    0.860E-03
RMM:   3    -0.788948519670E+03   -0.18670E-04   -0.20396E-04  2321   0.248E-02
  296 T=   281. E= -.78965605E+03 F= -.78894852E+03 E0= -.78894852E+03  EK= 0.40346E+01 SP= -.48E+01 SK= 0.26E-01
Information: wavefunction orthogonal band  230  0.8864
Information: wavefunction orthogonal band  233  0.8935
Information: wavefunction orthogonal band  233  0.8747
 bond charge predicted
 prediction of wavefunctions
 -----------------------------------------------------------------------------
|                                                                             |
|           W    W    AA    RRRRR   N    N  II  N    N   GGGG   !!!           |
|           W    W   A  A   R    R  NN   N  II  NN   N  G    G  !!!           |
|           W    W  A    A  R    R  N N  N  II  N N  N  G       !!!           |
|           W WW W  AAAAAA  RRRRR   N  N N  II  N  N N  G  GGG   !            |
|           WW  WW  A    A  R   R   N   NN  II  N   NN  G    G                |
|           W    W  A    A  R    R  N    N  II  N    N   GGGG   !!!           |
|                                                                             |
|     Tetrahedron method does not include variations of the Fermi             |
|     occupations, so forces and stress will be inaccurate. We suggest        |
|     using a different smearing scheme ISMEAR = 1 or 2 for metals in         |
|     relaxations.                                                            |
|                                                                             |
 -----------------------------------------------------------------------------

       N       E                     dE             d eps       ncg     rms          rms(c)
DAV:   1    -0.789001033801E+03   -0.52533E-01   -0.28850E-03  4963   0.421E-01    0.863E-03
RMM:   2    -0.789001173124E+03   -0.13932E-03   -0.11992E-03  3484   0.567E-02    0.785E-03
RMM:   3    -0.789001188782E+03   -0.15659E-04   -0.21062E-04  2345   0.252E-02
  297 T=   290. E= -.78965809E+03 F= -.78900119E+03 E0= -.78900119E+03  EK= 0.41590E+01 SP= -.48E+01 SK= 0.30E-01
Information: wavefunction orthogonal band  231  0.8932
Information: wavefunction orthogonal band  232  0.8733
Information: wavefunction orthogonal band  233  0.8688
 bond charge predicted
 prediction of wavefunctions
 -----------------------------------------------------------------------------
|                                                                             |
|           W    W    AA    RRRRR   N    N  II  N    N   GGGG   !!!           |
|           W    W   A  A   R    R  NN   N  II  NN   N  G    G  !!!           |
|           W    W  A    A  R    R  N N  N  II  N N  N  G       !!!           |
|           W WW W  AAAAAA  RRRRR   N  N N  II  N  N N  G  GGG   !            |
|           WW  WW  A    A  R   R   N   NN  II  N   NN  G    G                |
|           W    W  A    A  R    R  N    N  II  N    N   GGGG   !!!           |
|                                                                             |
|     Tetrahedron method does not include variations of the Fermi             |
|     occupations, so forces and stress will be inaccurate. We suggest        |
|     using a different smearing scheme ISMEAR = 1 or 2 for metals in         |
|     relaxations.                                                            |
|                                                                             |
 -----------------------------------------------------------------------------

       N       E                     dE             d eps       ncg     rms          rms(c)
DAV:   1    -0.789070312869E+03   -0.69140E-01   -0.25775E-03  5190   0.431E-01    0.109E-02
RMM:   2    -0.789070413664E+03   -0.10079E-03   -0.10955E-03  3492   0.552E-02    0.498E-03
RMM:   3    -0.789070433752E+03   -0.20088E-04   -0.19547E-04  2275   0.246E-02
  298 T=   300. E= -.78966049E+03 F= -.78907043E+03 E0= -.78907043E+03  EK= 0.43057E+01 SP= -.49E+01 SK= 0.31E-01
Information: wavefunction orthogonal band  233  0.8596
Information: wavefunction orthogonal band  233  0.8747
 bond charge predicted
 prediction of wavefunctions
 -----------------------------------------------------------------------------
|                                                                             |
|           W    W    AA    RRRRR   N    N  II  N    N   GGGG   !!!           |
|           W    W   A  A   R    R  NN   N  II  NN   N  G    G  !!!           |
|           W    W  A    A  R    R  N N  N  II  N N  N  G       !!!           |
|           W WW W  AAAAAA  RRRRR   N  N N  II  N  N N  G  GGG   !            |
|           WW  WW  A    A  R   R   N   NN  II  N   NN  G    G                |
|           W    W  A    A  R    R  N    N  II  N    N   GGGG   !!!           |
|                                                                             |
|     Tetrahedron method does not include variations of the Fermi             |
|     occupations, so forces and stress will be inaccurate. We suggest        |
|     using a different smearing scheme ISMEAR = 1 or 2 for metals in         |
|     relaxations.                                                            |
|                                                                             |
 -----------------------------------------------------------------------------

       N       E                     dE             d eps       ncg     rms          rms(c)
DAV:   1    -0.789154243020E+03   -0.83829E-01   -0.26982E-03  5418   0.442E-01    0.916E-03
RMM:   2    -0.789154365373E+03   -0.12235E-03   -0.11154E-03  3524   0.558E-02    0.548E-03
RMM:   3    -0.789154379274E+03   -0.13901E-04   -0.19606E-04  2285   0.247E-02
  299 T=   312. E= -.78966322E+03 F= -.78915438E+03 E0= -.78915438E+03  EK= 0.44696E+01 SP= -.50E+01 SK= 0.29E-01
Information: wavefunction orthogonal band  233  0.8874
 bond charge predicted
 prediction of wavefunctions
 -----------------------------------------------------------------------------
|                                                                             |
|           W    W    AA    RRRRR   N    N  II  N    N   GGGG   !!!           |
|           W    W   A  A   R    R  NN   N  II  NN   N  G    G  !!!           |
|           W    W  A    A  R    R  N N  N  II  N N  N  G       !!!           |
|           W WW W  AAAAAA  RRRRR   N  N N  II  N  N N  G  GGG   !            |
|           WW  WW  A    A  R   R   N   NN  II  N   NN  G    G                |
|           W    W  A    A  R    R  N    N  II  N    N   GGGG   !!!           |
|                                                                             |
|     Tetrahedron method does not include variations of the Fermi             |
|     occupations, so forces and stress will be inaccurate. We suggest        |
|     using a different smearing scheme ISMEAR = 1 or 2 for metals in         |
|     relaxations.                                                            |
|                                                                             |
 -----------------------------------------------------------------------------

       N       E                     dE             d eps       ncg     rms          rms(c)
DAV:   1    -0.789250363861E+03   -0.95998E-01   -0.29541E-03  5331   0.453E-01    0.627E-03
RMM:   2    -0.789250480310E+03   -0.11645E-03   -0.12938E-03  3526   0.587E-02    0.844E-03
RMM:   3    -0.789250502830E+03   -0.22520E-04   -0.22492E-04  2346   0.260E-02
  300 T=   324. E= -.78966621E+03 F= -.78925050E+03 E0= -.78925050E+03  EK= 0.46442E+01 SP= -.51E+01 SK= 0.25E-01
Information: wavefunction orthogonal band  229  0.8818
Information: wavefunction orthogonal band  231  0.8486
Information: wavefunction orthogonal band  232  0.9000
 bond charge predicted
 prediction of wavefunctions
 wavefunctions rotated
 -----------------------------------------------------------------------------
|                                                                             |
|           W    W    AA    RRRRR   N    N  II  N    N   GGGG   !!!           |
|           W    W   A  A   R    R  NN   N  II  NN   N  G    G  !!!           |
|           W    W  A    A  R    R  N N  N  II  N N  N  G       !!!           |
|           W WW W  AAAAAA  RRRRR   N  N N  II  N  N N  G  GGG   !            |
|           WW  WW  A    A  R   R   N   NN  II  N   NN  G    G                |
|           W    W  A    A  R    R  N    N  II  N    N   GGGG   !!!           |
|                                                                             |
|     Tetrahedron method does not include variations of the Fermi             |
|     occupations, so forces and stress will be inaccurate. We suggest        |
|     using a different smearing scheme ISMEAR = 1 or 2 for metals in         |
|     relaxations.                                                            |
|                                                                             |
 -----------------------------------------------------------------------------

Warning: ieee_invalid is signaling
Warning: ieee_divide_by_zero is signaling
Warning: ieee_underflow is signaling
Warning: ieee_inexact is signaling
FORTRAN STOP
