unknown system                          
            1
     9.424964    0.072571    4.306976
     2.795979    9.000986    4.306977
     0.097743    0.072571   10.361971
   B    C 
    96    16
Direct configuration=     1
   0.16039500  0.40051500  0.40051500
   0.16039500  0.40051500  0.90051500
   0.16039500  0.90051500  0.40051500
   0.16039500  0.90051500  0.90051500
   0.66039500  0.40051500  0.40051500
   0.66039500  0.40051500  0.90051500
   0.66039500  0.90051500  0.40051500
   0.66039500  0.90051500  0.90051500
   0.40051500  0.40051500  0.16039500
   0.40051500  0.40051500  0.66039500
   0.40051500  0.90051500  0.16039500
   0.40051500  0.90051500  0.66039500
   0.90051500  0.40051500  0.16039500
   0.90051500  0.40051500  0.66039500
   0.90051500  0.90051500  0.16039500
   0.90051500  0.90051500  0.66039500
   0.40051500  0.16039500  0.40051500
   0.40051500  0.16039500  0.90051500
   0.40051500  0.66039500  0.40051500
   0.40051500  0.66039500  0.90051500
   0.90051500  0.16039500  0.40051500
   0.90051500  0.16039500  0.90051500
   0.90051500  0.66039500  0.40051500
   0.90051500  0.66039500  0.90051500
   0.33960500  0.09948500  0.09948500
   0.33960500  0.09948500  0.59948500
   0.33960500  0.59948500  0.09948500
   0.33960500  0.59948500  0.59948500
   0.83960500  0.09948500  0.09948500
   0.83960500  0.09948500  0.59948500
   0.83960500  0.59948500  0.09948500
   0.83960500  0.59948500  0.59948500
   0.09948500  0.09948500  0.33960500
   0.09948500  0.09948500  0.83960500
   0.09948500  0.59948500  0.33960500
   0.09948500  0.59948500  0.83960500
   0.59948500  0.09948500  0.33960500
   0.59948500  0.09948500  0.83960500
   0.59948500  0.59948500  0.33960500
   0.59948500  0.59948500  0.83960500
   0.09948500  0.33960500  0.09948500
   0.09948500  0.33960500  0.59948500
   0.09948500  0.83960500  0.09948500
   0.09948500  0.83960500  0.59948500
   0.59948500  0.33960500  0.09948500
   0.59948500  0.33960500  0.59948500
   0.59948500  0.83960500  0.09948500
   0.59948500  0.83960500  0.59948500
   0.33229300  0.00011500  0.00011500
   0.33229300  0.00011500  0.50011500
   0.33229300  0.50011500  0.00011500
   0.33229300  0.50011500  0.50011500
   0.83229300  0.00011500  0.00011500
   0.83229300  0.00011500  0.50011500
   0.83229300  0.50011500  0.00011500
   0.83229300  0.50011500  0.50011500
   0.00011500  0.00011500  0.33229300
   0.00011500  0.00011500  0.83229300
   0.00011500  0.50011500  0.33229300
   0.00011500  0.50011500  0.83229300
   0.50011500  0.00011500  0.33229300
   0.50011500  0.00011500  0.83229300
   0.50011500  0.50011500  0.33229300
   0.50011500  0.50011500  0.83229300
   0.00011500  0.33229300  0.00011500
   0.00011500  0.33229300  0.50011500
   0.00011500  0.83229300  0.00011500
   0.00011500  0.83229300  0.50011500
   0.50011500  0.33229300  0.00011500
   0.50011500  0.33229300  0.50011500
   0.50011500  0.83229300  0.00011500
   0.50011500  0.83229300  0.50011500
   0.16770700  0.99988500  0.99988500
   0.16770700  0.99988500  0.49988500
   0.16770700  0.49988500  0.99988500
   0.16770700  0.49988500  0.49988500
   0.66770700  0.99988500  0.99988500
   0.66770700  0.99988500  0.49988500
   0.66770700  0.49988500  0.99988500
   0.66770700  0.49988500  0.49988500
   0.99988500  0.99988500  0.16770700
   0.99988500  0.99988500  0.66770700
   0.99988500  0.49988500  0.16770700
   0.99988500  0.49988500  0.66770700
   0.49988500  0.99988500  0.16770700
   0.49988500  0.99988500  0.66770700
   0.49988500  0.49988500  0.16770700
   0.49988500  0.49988500  0.66770700
   0.99988500  0.16770700  0.99988500
   0.99988500  0.16770700  0.49988500
   0.99988500  0.66770700  0.99988500
   0.99988500  0.66770700  0.49988500
   0.49988500  0.16770700  0.99988500
   0.49988500  0.16770700  0.49988500
   0.49988500  0.66770700  0.99988500
   0.49988500  0.66770700  0.49988500
   0.31539700  0.31539700  0.31539700
   0.31539700  0.31539700  0.81539700
   0.31539700  0.81539700  0.31539700
   0.31539700  0.81539700  0.81539700
   0.81539700  0.31539700  0.31539700
   0.81539700  0.31539700  0.81539700
   0.81539700  0.81539700  0.31539700
   0.81539700  0.81539700  0.81539700
   0.18460300  0.18460300  0.18460300
   0.18460300  0.18460300  0.68460300
   0.18460300  0.68460300  0.18460300
   0.18460300  0.68460300  0.68460300
   0.68460300  0.18460300  0.18460300
   0.68460300  0.18460300  0.68460300
   0.68460300  0.68460300  0.18460300
   0.68460300  0.68460300  0.68460300
Direct configuration=     2
   0.16035643  0.40027681  0.40064304
   0.16012650  0.40081982  0.90069882
   0.16049293  0.90035390  0.40048637
   0.16052916  0.90053611  0.90030956
   0.66077453  0.40056171  0.40044968
   0.65973208  0.40042023  0.90061788
   0.66026930  0.90019630  0.40074259
   0.66016303  0.90085733  0.90036335
   0.40090222  0.40054729  0.15980480
   0.40077111  0.40075541  0.65989264
   0.40077092  0.90034021  0.16019294
   0.40066880  0.90017069  0.66069100
   0.90016195  0.40052878  0.16023242
   0.90032437  0.40031621  0.66043381
   0.90043778  0.90064290  0.16035825
   0.90036784  0.90102092  0.65999036
   0.40054356  0.16054614  0.40010305
   0.40084507  0.16047703  0.90039005
   0.40052914  0.66039059  0.40122356
   0.40137071  0.65995835  0.89999187
   0.90055436  0.16042293  0.40026063
   0.90085132  0.15999682  0.90056404
   0.90072884  0.66051318  0.40053857
   0.90061918  0.66045514  0.90078797
   0.33986481  0.09922175  0.09967602
   0.34002734  0.09968803  0.59898160
   0.33945718  0.59954864  0.09984285
   0.33955923  0.59955803  0.59993250
   0.83978069  0.09942589  0.09942054
   0.83959795  0.09950101  0.59947166
   0.83935485  0.59986813  0.09944138
   0.83972649  0.59944381  0.59930248
   0.09969452  0.09952466  0.33996345
   0.09901939  0.09965051  0.83982924
   0.09963277  0.59949337  0.33943406
   0.09886121  0.59935173  0.83992374
   0.59961267  0.09951399  0.33979472
   0.59956129  0.09959542  0.83923250
   0.59946923  0.59982448  0.33999685
   0.59941053  0.59954639  0.83952678
   0.09885776  0.33986810  0.09955031
   0.09930319  0.33960078  0.59941494
   0.09951002  0.83984002  0.09943441
   0.09958708  0.83933762  0.59967860
   0.59952109  0.33971769  0.09935441
   0.59944507  0.33960885  0.59940980
   0.59961274  0.83941913  0.09957927
   0.59971940  0.83965225  0.59946990
   0.33259267  0.00002576  0.99995643
   0.33234607  0.00021585  0.50013141
   0.33203065  0.49982691  0.00021035
   0.33247432  0.50009328  0.50007846
   0.83242772  0.00014027  0.00035908
   0.83218122  0.00000436  0.50029379
   0.83184086  0.49990416  0.00036047
   0.83234032  0.50042881  0.49977892
   0.99988384  0.00006256  0.33211167
   0.99993449  0.00044367  0.83233670
   0.00008650  0.49957533  0.33242580
   0.00041526  0.50023831  0.83199193
   0.50049227  0.99978872  0.33218767
   0.49993335  0.00055724  0.83256942
   0.50034872  0.50006246  0.33213175
   0.50022487  0.49991782  0.83267245
   0.00036066  0.33221749  0.99992238
   0.00052276  0.33182142  0.49994034
   0.00013047  0.83202786  0.00008710
   0.00002641  0.83199113  0.50000502
   0.50006723  0.33173422  0.00022561
   0.50036795  0.33246547  0.49963368
   0.50053665  0.83183837  0.00022157
   0.50009459  0.83232201  0.50012904
   0.16731957  0.99987946  0.00012249
   0.16681829  0.99967436  0.50068345
   0.16790074  0.49986763  0.99940755
   0.16774202  0.50018121  0.49988357
   0.66750107  0.00024316  0.00009670
   0.66755228  0.99983109  0.50006347
   0.66768642  0.49965084  0.99978216
   0.66824488  0.49990109  0.49964092
   0.99981848  0.99991312  0.16769148
   0.99985564  0.99992825  0.66756958
   0.99942532  0.50021423  0.16803741
   0.99954671  0.50017894  0.66753552
   0.49944380  0.99973200  0.16788176
   0.50026089  0.00035283  0.66781652
   0.49997070  0.50016613  0.16773838
   0.50058524  0.49987808  0.66752880
   0.99977354  0.16744416  0.99996424
   0.99987497  0.16780490  0.49966846
   0.99994695  0.66756501  0.99991854
   0.99971301  0.66742322  0.50015189
   0.50026067  0.16719313  0.99986009
   0.50014693  0.16787975  0.49937773
   0.49956688  0.66827705  0.99955515
   0.49986776  0.66743592  0.49940354
   0.31545500  0.31554236  0.31503465
   0.31490962  0.31561286  0.81568371
   0.31533720  0.81556382  0.31604598
   0.31542592  0.81573352  0.81540714
   0.81526488  0.31525620  0.31537169
   0.81497366  0.31562570  0.81548635
   0.81540314  0.81515428  0.31556504
   0.81558326  0.81537148  0.81525338
   0.18449470  0.18488688  0.18471634
   0.18437558  0.18441490  0.68497376
   0.18448189  0.68477155  0.18464523
   0.18491903  0.68473388  0.68422682
   0.68449189  0.18467750  0.18453303
   0.68490296  0.18450900  0.68450106
   0.68421602  0.68435033  0.18503090
   0.68436090  0.68449411  0.68481229
Direct configuration=     3
   0.16031804  0.40003942  0.40076960
   0.15985778  0.40112288  0.90088158
   0.16058720  0.90019415  0.40045925
   0.16066121  0.90055719  0.90010497
   0.66115133  0.40060868  0.40038494
   0.65907149  0.40032458  0.90071965
   0.66014415  0.89987795  0.40096889
   0.65993340  0.90119669  0.90021139
   0.40128642  0.40057886  0.15921750
   0.40102451  0.40099330  0.65939454
   0.40102398  0.90016368  0.15999384
   0.40082305  0.89982960  0.66098335
   0.89980844  0.40054261  0.16007003
   0.90013378  0.40011819  0.66047078
   0.90036002  0.90076864  0.16032232
   0.90022058  0.90152282  0.65958789
   0.40057224  0.16069586  0.39969154
   0.40117199  0.16055977  0.90026564
   0.40054216  0.66038625  0.40192941
   0.40222001  0.65952523  0.89947026
   0.90059336  0.16044912  0.40000727
   0.90118321  0.15960289  0.90061158
   0.90094239  0.66062919  0.40056173
   0.90072113  0.66051509  0.90105958
   0.34012269  0.09896122  0.09986699
   0.34044707  0.09989158  0.59848209
   0.33931138  0.59961230  0.10019820
   0.33951763  0.59962938  0.60037782
   0.83995488  0.09936822  0.09935764
   0.83959268  0.09951775  0.59945723
   0.83910552  0.60024944  0.09939890
   0.83984643  0.59940317  0.59912184
   0.09990365  0.09956459  0.34032065
   0.09855660  0.09981529  0.84005343
   0.09977976  0.59950082  0.33926558
   0.09824232  0.59922174  0.84023768
   0.59974100  0.09954310  0.33998343
   0.59963845  0.09970588  0.83886203
   0.59945413  0.60016194  0.34038863
   0.59933679  0.59960677  0.83945044
   0.09823346  0.34013006  0.09961668
   0.09912251  0.33959620  0.59934615
   0.09953528  0.84007417  0.09938470
   0.09968770  0.83907317  0.59987056
   0.59955718  0.33983017  0.09922487
   0.59940699  0.33961298  0.59933474
   0.59974062  0.83923435  0.09967345
   0.59995290  0.83969979  0.59945620
   0.33289133  0.99993706  0.99979877
   0.33239777  0.00031664  0.50014855
   0.33177026  0.49954043  0.00030566
   0.33265442  0.50007265  0.50004252
   0.83256230  0.00016532  0.00060249
   0.83207023  0.99989473  0.50047159
   0.83139091  0.49969471  0.00060523
   0.83238806  0.50074191  0.49944417
   0.99965422  0.00001089  0.33193209
   0.99975471  0.00077112  0.83237978
   0.00005879  0.49903795  0.33255877
   0.00071379  0.50036199  0.83169126
   0.50086830  0.99946379  0.33208340
   0.49975250  0.00099867  0.83284480
   0.50058281  0.50001150  0.33197166
   0.50033468  0.49972115  0.83304920
   0.00060522  0.33214163  0.99973079
   0.00092960  0.33135138  0.49976700
   0.00014669  0.83176380  0.00005996
   0.99993893  0.83168983  0.49989623
   0.50001998  0.33117702  0.00033681
   0.50062134  0.33263734  0.49915360
   0.50095776  0.83138676  0.00032789
   0.50007478  0.83234866  0.50014412
   0.16693380  0.99987384  0.00035900
   0.16593416  0.99946371  0.50147946
   0.16809238  0.49984997  0.99893199
   0.16777746  0.50047559  0.49988139
   0.66729532  0.00059939  0.00030784
   0.66739816  0.99977683  0.50024131
   0.66766542  0.49941724  0.99967885
   0.66878157  0.49991632  0.49939685
   0.99975189  0.99994066  0.16767542
   0.99982546  0.99997088  0.66743332
   0.99896552  0.50054155  0.16836651
   0.99920910  0.50047094  0.66736530
   0.49900454  0.99957833  0.16805600
   0.50063533  0.00081917  0.66792431
   0.50005553  0.50044628  0.16776848
   0.50128339  0.49987029  0.66735148
   0.99966231  0.16718335  0.00004297
   0.99986392  0.16790238  0.49945185
   0.00000805  0.66742344  0.99995198
   0.99954117  0.66714092  0.50041709
   0.50063492  0.16668045  0.99983507
   0.50040758  0.16805322  0.49887105
   0.49924947  0.66884380  0.99922561
   0.49985044  0.66716830  0.49892438
   0.31551335  0.31568772  0.31467219
   0.31442600  0.31582911  0.81596722
   0.31528078  0.81572962  0.31669132
   0.31545663  0.81606612  0.81541840
   0.81513404  0.31511629  0.31534493
   0.81455206  0.31585170  0.81557648
   0.81540941  0.81491314  0.31573180
   0.81576827  0.81534766  0.81511003
   0.18438695  0.18517003  0.18482914
   0.18415021  0.18422789  0.68534117
   0.18436106  0.68494019  0.18468674
   0.18523111  0.68486239  0.68385688
   0.68438183  0.18475126  0.18446303
   0.68520111  0.18441658  0.68439879
   0.68383040  0.68409957  0.18545692
   0.68412129  0.68438536  0.68501905
Direct configuration=     4
   0.16028094  0.39980379  0.40089332
   0.15958904  0.40142303  0.90106271
   0.16067541  0.90003727  0.40043499
   0.16078911  0.90057897  0.89990304
   0.66152395  0.40065627  0.40032117
   0.65841572  0.40022782  0.90082010
   0.66002097  0.89956048  0.40119281
   0.65970878  0.90153085  0.90005946
   0.40166529  0.40060963  0.15863601
   0.40127313  0.40122659  0.65890542
   0.40127231  0.89998441  0.15980039
   0.40097861  0.89949517  0.66126945
   0.89945478  0.40055715  0.15990787
   0.89994354  0.39992192  0.66050517
   0.90028187  0.90089068  0.16028811
   0.90007357  0.90201709  0.65919043
   0.40060141  0.16084351  0.39928104
   0.40149352  0.16064405  0.90014283
   0.40055318  0.66038303  0.40262964
   0.40305728  0.65909913  0.89895253
   0.90063194  0.16047277  0.39975564
   0.90150704  0.15921732  0.90065707
   0.90115561  0.66074173  0.40058413
   0.90081935  0.66057487  0.90132904
   0.34037647  0.09870528  0.10005727
   0.34086083  0.10009601  0.59799010
   0.33916944  0.59967533  0.10054782
   0.33948318  0.59969723  0.60081906
   0.84012595  0.09931266  0.09929696
   0.83958977  0.09953578  0.59944078
   0.83885735  0.60062649  0.09935813
   0.83996228  0.59936347  0.59894487
   0.10011153  0.09960473  0.34067470
   0.09809871  0.09997805  0.84027737
   0.09992493  0.59950620  0.33910091
   0.09763229  0.59909756  0.84054236
   0.59987029  0.09957214  0.34016918
   0.59971646  0.09981581  0.83849575
   0.59943986  0.60049510  0.34077952
   0.59926387  0.59966458  0.83937762
   0.09761408  0.34038969  0.09968458
   0.09894394  0.33959003  0.59927983
   0.09956030  0.84030659  0.09933585
   0.09978512  0.83881362  0.60005946
   0.59959255  0.33994218  0.09909660
   0.59937224  0.33961678  0.59926011
   0.59986791  0.83905166  0.09976687
   0.60018446  0.83974708  0.59944520
   0.33318660  0.99984936  0.99964266
   0.33244773  0.00041662  0.50016674
   0.33151279  0.49925707  0.00040056
   0.33283315  0.50005337  0.50000721
   0.83269512  0.00018996  0.00084440
   0.83196168  0.99978626  0.50064697
   0.83094419  0.49948791  0.00084823
   0.83243765  0.50105292  0.49911153
   0.99942730  0.99996034  0.33175553
   0.99957605  0.00109569  0.83242165
   0.00003235  0.49850471  0.33269190
   0.00100835  0.50048586  0.83139169
   0.50124167  0.99914122  0.33198064
   0.49957280  0.00143802  0.83311819
   0.50081721  0.49996328  0.33181351
   0.50044384  0.49952501  0.83342080
   0.00084746  0.33206419  0.99954082
   0.00133387  0.33088565  0.49959564
   0.00016434  0.83150106  0.00003394
   0.99985265  0.83139097  0.49978908
   0.49997359  0.33062214  0.00044876
   0.50087470  0.33280950  0.49867533
   0.50137759  0.83094032  0.00043327
   0.50005530  0.83237215  0.50016067
   0.16655277  0.99986803  0.00059378
   0.16505808  0.99925382  0.50227107
   0.16828098  0.49983180  0.99846055
   0.16781272  0.50076709  0.49987819
   0.66709142  0.00095186  0.00051814
   0.66724437  0.99972262  0.50041828
   0.66764458  0.49918475  0.99957495
   0.66931489  0.49993069  0.49915334
   0.99968552  0.99996746  0.16765823
   0.99979391  0.00001274  0.66729992
   0.99850597  0.50086570  0.16869262
   0.99887322  0.50075944  0.66719777
   0.49856957  0.99942380  0.16822915
   0.50100714  0.00128286  0.66802927
   0.50013910  0.50072496  0.16779580
   0.50197790  0.49986114  0.66717624
   0.99955163  0.16692737  0.00012105
   0.99985182  0.16799771  0.49923580
   0.00006762  0.66728355  0.99998569
   0.99937051  0.66686029  0.50067957
   0.50100662  0.16617094  0.99981035
   0.50066650  0.16822672  0.49836600
   0.49893352  0.66940487  0.99889704
   0.49983395  0.66690605  0.49845056
   0.31557236  0.31583319  0.31430933
   0.31394945  0.31604596  0.81624474
   0.31523074  0.81589331  0.31732958
   0.31549074  0.81639107  0.81543183
   0.81500543  0.31497808  0.31531541
   0.81413369  0.31607246  0.81566807
   0.81541588  0.81467519  0.31589591
   0.81595049  0.81532717  0.81496738
   0.18428060  0.18545176  0.18494067
   0.18392892  0.18404298  0.68570221
   0.18424091  0.68510912  0.18472690
   0.18553563  0.68498634  0.68349896
   0.68427405  0.18482360  0.18439299
   0.68549602  0.18432723  0.68429572
   0.68344776  0.68385262  0.18587898
   0.68388669  0.68427684  0.68522095
Direct configuration=     5
   0.16024604  0.39957092  0.40101313
   0.15932081  0.40171898  0.90124138
   0.16075508  0.89988487  0.40041512
   0.16091126  0.90060194  0.89970517
   0.66189082  0.40070504  0.40025897
   0.65776745  0.40012946  0.90091881
   0.65990083  0.89924457  0.40141355
   0.65949200  0.90185755  0.89990756
   0.40203649  0.40063948  0.15806340
   0.40151516  0.40145347  0.65842939
   0.40151404  0.89980133  0.15961542
   0.40113645  0.89917078  0.66154647
   0.89910112  0.40057287  0.15974629
   0.89975398  0.39972839  0.66053611
   0.90020328  0.90100744  0.16025684
   0.89992725  0.90250029  0.65880046
   0.40063157  0.16098825  0.39887226
   0.40180737  0.16073104  0.90002235
   0.40056154  0.66038173  0.40332170
   0.40387696  0.65868370  0.89844064
   0.90067019  0.16049294  0.39950659
   0.90181908  0.15884436  0.90069974
   0.90136858  0.66084938  0.40060561
   0.90091211  0.66063490  0.90159533
   0.34062375  0.09845592  0.10024652
   0.34126571  0.10030148  0.59750881
   0.33903282  0.59973729  0.10088897
   0.33945909  0.59975963  0.60125423
   0.84029198  0.09926004  0.09923945
   0.83958998  0.09955549  0.59942116
   0.83861029  0.60099724  0.09931994
   0.84007179  0.59932487  0.59877301
   0.10031737  0.09964497  0.34102401
   0.09764798  0.10013765  0.84050050
   0.10006723  0.59950831  0.33894156
   0.09703495  0.59898158  0.84083343
   0.60000079  0.09960072  0.34035038
   0.59979538  0.09992471  0.83813539
   0.59942650  0.60082169  0.34116903
   0.59919208  0.59971836  0.83930962
   0.09700162  0.34064552  0.09975483
   0.09876826  0.33958123  0.59921697
   0.09958488  0.84053610  0.09928817
   0.09987749  0.83856098  0.60024382
   0.59962672  0.34005315  0.09897009
   0.59934206  0.33961995  0.59918589
   0.59999410  0.83887173  0.09985923
   0.60041286  0.83979381  0.59943797
   0.33347711  0.99976278  0.99948862
   0.33249491  0.00051530  0.50018634
   0.33126007  0.49897797  0.00049459
   0.33300983  0.50003591  0.49997254
   0.83282552  0.00021374  0.00108398
   0.83185638  0.99967935  0.50081863
   0.83050247  0.49928463  0.00108842
   0.83248993  0.50136083  0.49878170
   0.99920404  0.99991112  0.33158345
   0.99939884  0.00141577  0.83246163
   0.00000751  0.49797720  0.33282567
   0.00129683  0.50060973  0.83109390
   0.50161105  0.99882186  0.33188008
   0.49939456  0.00187416  0.83338855
   0.50105177  0.49991883  0.33165820
   0.50055181  0.49932945  0.83378469
   0.00108589  0.33198493  0.99935290
   0.00173426  0.33042616  0.49942688
   0.00018381  0.83124082  0.00000928
   0.99976786  0.83109564  0.49968404
   0.49992814  0.33007080  0.00056159
   0.50112790  0.33298200  0.49819941
   0.50179531  0.83050171  0.00053699
   0.50003611  0.83239096  0.50017922
   0.16617851  0.99986224  0.00082616
   0.16419405  0.99904518  0.50305642
   0.16846482  0.49981330  0.99799535
   0.16784783  0.50105450  0.49987369
   0.66689009  0.00129911  0.00072748
   0.66709137  0.99966858  0.50059410
   0.66762354  0.49895413  0.99947040
   0.66984329  0.49994401  0.49891088
   0.99961963  0.99999340  0.16763949
   0.99976046  0.00005374  0.66717081
   0.99804699  0.50118548  0.16901410
   0.99854006  0.50104301  0.66703389
   0.49814105  0.99926812  0.16840087
   0.50137534  0.00174300  0.66813005
   0.50022100  0.50100170  0.16781908
   0.50266749  0.49985018  0.66700404
   0.99944208  0.16667796  0.00019847
   0.99983834  0.16808990  0.49902086
   0.00012532  0.66714555  0.00002017
   0.99920175  0.66658221  0.50093831
   0.50137495  0.16566585  0.99978640
   0.50092302  0.16840044  0.49786351
   0.49861990  0.66995735  0.99857006
   0.49981895  0.66665175  0.49798506
   0.31563235  0.31597888  0.31394573
   0.31348306  0.31626354  0.81651373
   0.31518986  0.81605380  0.31795768
   0.31552983  0.81670481  0.81544837
   0.81487992  0.31484224  0.31528194
   0.81371992  0.31628563  0.81576176
   0.81542266  0.81444192  0.31605616
   0.81612845  0.81531164  0.81482571
   0.18417642  0.18573136  0.18505031
   0.18371358  0.18386121  0.68605400
   0.18412182  0.68527854  0.18476518
   0.18582922  0.68510386  0.68315832
   0.68416964  0.18489394  0.18432289
   0.68578640  0.18424240  0.68419135
   0.68306957  0.68361128  0.18629510
   0.68365954  0.68416867  0.68541575
Direct configuration=     6
   0.16021421  0.39934179  0.40112790
   0.15905359  0.40200953  0.90141664
   0.16082391  0.89973847  0.40040095
   0.16102602  0.90062675  0.89951270
   0.66225064  0.40075547  0.40019877
   0.65712921  0.40002906  0.90101531
   0.65978480  0.89893079  0.40163032
   0.65928575  0.90217474  0.89975558
   0.40239778  0.40066845  0.15750244
   0.40174912  0.40167234  0.65797005
   0.40174758  0.89961348  0.15944137
   0.40129753  0.89885973  0.66181173
   0.89874755  0.40059027  0.15958543
   0.89956534  0.39953862  0.66056269
   0.90012424  0.90111753  0.16022957
   0.89978209  0.90296929  0.65842017
   0.40066317  0.16112947  0.39846575
   0.40211144  0.16082191  0.89990478
   0.40056654  0.66038319  0.40400305
   0.40467368  0.65828261  0.89793635
   0.90070827  0.16050869  0.39926074
   0.90211574  0.15848814  0.90073890
   0.90158141  0.66095093  0.40062594
   0.90099779  0.66069564  0.90185741
   0.34086219  0.09821499  0.10043453
   0.34165913  0.10050800  0.59704120
   0.33890294  0.59979763  0.10121918
   0.33944829  0.59981468  0.60168174
   0.84045126  0.09921104  0.09918604
   0.83959398  0.09957728  0.59939733
   0.83836409  0.60135978  0.09928531
   0.84017278  0.59928742  0.59860770
   0.10052038  0.09968522  0.34136725
   0.09720650  0.10029287  0.84072242
   0.10020574  0.59950591  0.33878890
   0.09645367  0.59887597  0.84110713
   0.60013280  0.09962846  0.34052545
   0.59987525  0.10003213  0.83778267
   0.59941414  0.60113955  0.34155679
   0.59912176  0.59976659  0.83924772
   0.09639774  0.34089623  0.09982832
   0.09859621  0.33956859  0.59915861
   0.09960887  0.84076147  0.09924199
   0.09996295  0.83831708  0.60042246
   0.59965928  0.34016243  0.09884582
   0.59931764  0.33962209  0.59911218
   0.60011864  0.83869515  0.09995035
   0.60063707  0.83983955  0.59943567
   0.33376148  0.99967737  0.99933717
   0.33253841  0.00061229  0.50020782
   0.33101389  0.49870412  0.00058733
   0.33318384  0.50002064  0.49993844
   0.83295277  0.00023623  0.00132052
   0.83175498  0.99957431  0.50098533
   0.83006734  0.49908559  0.00132481
   0.83254584  0.50166472  0.49845532
   0.99898522  0.99986341  0.33141716
   0.99922344  0.00172986  0.83249905
   0.99998463  0.49745680  0.33296062
   0.00157716  0.50073342  0.83079842
   0.50197528  0.99850649  0.33178234
   0.49921800  0.00230604  0.83365492
   0.50128641  0.49987908  0.33150657
   0.50065804  0.49913441  0.83413857
   0.00131910  0.33190345  0.99916743
   0.00212970  0.32997469  0.49926136
   0.00020553  0.83098418  0.99998621
   0.99968476  0.83080479  0.49958151
   0.49988368  0.32952411  0.00067543
   0.50138085  0.33315498  0.49772619
   0.50221017  0.83007339  0.00063835
   0.50001717  0.83240372  0.50020029
   0.16581291  0.99985663  0.00105549
   0.16334575  0.99883829  0.50383381
   0.16864232  0.49979466  0.99753838
   0.16788267  0.50133673  0.49986759
   0.66669220  0.00163979  0.00093576
   0.66693959  0.99961482  0.50076853
   0.66760192  0.49872603  0.99936509
   0.67036536  0.49995614  0.49866990
   0.99955437  0.00001836  0.16761876
   0.99972452  0.00009391  0.66704748
   0.99758879  0.50149991  0.16932946
   0.99821054  0.50132031  0.66687451
   0.49772106  0.99911103  0.16857088
   0.50173906  0.00219883  0.66822533
   0.50030088  0.50127617  0.16783694
   0.50335117  0.49983703  0.66683570
   0.99933418  0.16643678  0.00027516
   0.99982321  0.16817799  0.49880752
   0.00018087  0.66700972  0.00005591
   0.99903554  0.66630746  0.50119233
   0.50173929  0.16516626  0.99976369
   0.50117649  0.16857453  0.49736431
   0.49830933  0.67049855  0.99824510
   0.49980622  0.66640779  0.49753095
   0.31569370  0.31612472  0.31358103
   0.31302952  0.31648194  0.81677210
   0.31516068  0.81620995  0.31857302
   0.31557551  0.81700385  0.81546898
   0.81475822  0.31470935  0.31524348
   0.81331191  0.31648893  0.81585819
   0.81542981  0.81421459  0.31621148
   0.81630079  0.81530250  0.81468540
   0.18407527  0.18600825  0.18515740
   0.18350585  0.18368379  0.68639375
   0.18400402  0.68544885  0.18480103
   0.18610893  0.68521336  0.68283957
   0.68406960  0.18496182  0.18425268
   0.68607113  0.18416350  0.68408505
   0.68269725  0.68337725  0.18670334
   0.68344213  0.68406114  0.68560116
Direct configuration=     7
   0.16018634  0.39911715  0.40123666
   0.15878770  0.40229359  0.90158780
   0.16087965  0.89959950  0.40039387
   0.16113194  0.90065392  0.89932687
   0.66260230  0.40080805  0.40014107
   0.65650337  0.39992596  0.90110929
   0.65967393  0.89861951  0.40184252
   0.65909252  0.90248056  0.89960353
   0.40274713  0.40069648  0.15695567
   0.40197359  0.40188175  0.65753077
   0.40197137  0.89941984  0.15928060
   0.40146280  0.89856489  0.66206288
   0.89839397  0.40060979  0.15942545
   0.89937779  0.39935339  0.66058420
   0.90004473  0.90121956  0.16020738
   0.89963844  0.90342120  0.65805163
   0.40069668  0.16126651  0.39806188
   0.40240375  0.16091788  0.89979073
   0.40056731  0.66038830  0.40467152
   0.40544256  0.65789915  0.89744125
   0.90074627  0.16051915  0.39901869
   0.90239367  0.15815228  0.90077413
   0.90179430  0.66104518  0.40064498
   0.90107473  0.66075766  0.90211446
   0.34108965  0.09798417  0.10062108
   0.34203871  0.10071582  0.59658983
   0.33878103  0.59985597  0.10153625
   0.33945360  0.59986063  0.60210020
   0.84060220  0.09916635  0.09913751
   0.83960247  0.09960154  0.59936817
   0.83811848  0.60171244  0.09925506
   0.84026324  0.59925119  0.59845014
   0.10071998  0.09972545  0.34170310
   0.09677616  0.10044271  0.84094273
   0.10033964  0.59949794  0.33864413
   0.09589150  0.59878273  0.84136000
   0.60026672  0.09965503  0.34069282
   0.59995618  0.10013771  0.83743902
   0.59940306  0.60144672  0.34194232
   0.59905334  0.59980791  0.83919302
   0.09580388  0.34114065  0.09990580
   0.09842843  0.33955111  0.59910564
   0.09963207  0.84098171  0.09919754
   0.10003979  0.83808355  0.60059421
   0.59968986  0.34026950  0.09872416
   0.59930022  0.33962285  0.59903895
   0.60024113  0.83852244  0.10004001
   0.60085616  0.83988397  0.59943934
   0.33403845  0.99959320  0.99918878
   0.33257735  0.00070725  0.50023160
   0.33077587  0.49843629  0.00067836
   0.33335477  0.50000801  0.49990483
   0.83307616  0.00025704  0.00155340
   0.83165811  0.99947148  0.50114595
   0.82964024  0.49889143  0.00155655
   0.83260639  0.50196383  0.49813280
   0.99877157  0.99981734  0.33125789
   0.99905010  0.00203660  0.83253324
   0.99996400  0.49694465  0.33309724
   0.00184750  0.50085679  0.83050562
   0.50233334  0.99819568  0.33168794
   0.49904335  0.00273275  0.83391649
   0.50152115  0.49984492  0.33135938
   0.50076194  0.49893974  0.83448035
   0.00154585  0.33181940  0.99898470
   0.00251924  0.32953273  0.49909956
   0.00022985  0.83073210  0.99996492
   0.99960355  0.83051929  0.49948184
   0.49984019  0.32898295  0.00079041
   0.50163358  0.33332879  0.49725586
   0.50262164  0.82965767  0.00073670
   0.49999840  0.83240928  0.50022434
   0.16545768  0.99985141  0.00128124
   0.16251648  0.99863351  0.50460182
   0.16881193  0.49977611  0.99709137
   0.16791710  0.50161289  0.49985969
   0.66649857  0.00197262  0.00114295
   0.66678947  0.99956146  0.50094136
   0.66757931  0.49850102  0.99925890
   0.67087988  0.49996693  0.49843072
   0.99948993  0.00004223  0.16759569
   0.99968536  0.00013325  0.66693142
   0.99713131  0.50180817  0.16963736
   0.99788546  0.50159010  0.66672048
   0.49731147  0.99895214  0.16873899
   0.50209763  0.00264988  0.66831391
   0.50037846  0.50154817  0.16784808
   0.50402823  0.49982130  0.66667194
   0.99922843  0.16620535  0.00035114
   0.99980608  0.16826107  0.49859622
   0.00023399  0.66687622  0.00009343
   0.99887254  0.66603674  0.50144081
   0.50209908  0.16467299  0.99974274
   0.50142640  0.16874916  0.49686901
   0.49800241  0.67102608  0.99792253
   0.49979648  0.66617624  0.49709127
   0.31575672  0.31627087  0.31321472
   0.31259134  0.31670131  0.81701788
   0.31514571  0.81636075  0.31917328
   0.31562920  0.81728522  0.81549443
   0.81464106  0.31457992  0.31519890
   0.81291057  0.31668045  0.81595787
   0.81543736  0.81399444  0.31636085
   0.81646636  0.81530116  0.81454662
   0.18397780  0.18628191  0.18526150
   0.18330725  0.18351164  0.68671907
   0.18388776  0.68562031  0.18483403