 112 112   0   0
  0.7077802E+01  0.1004198E-08  0.1004198E-08  0.1004198E-08  0.5000000E-15
   1.0000000000000000E-004
  CAR 
 unknown system                          
     14.76411470    -11.87628226  301      4.93139222      1.00000000
    -11.876  0.0000E+00  0.0000E+00
    -11.787  0.0000E+00  0.0000E+00
    -11.699  0.0000E+00  0.0000E+00
    -11.610  0.0000E+00  0.0000E+00
    -11.521  0.0000E+00  0.0000E+00
    -11.432  0.0000E+00  0.0000E+00
    -11.343  0.0000E+00  0.0000E+00
    -11.255  0.0000E+00  0.0000E+00
    -11.166  0.0000E+00  0.0000E+00
    -11.077  0.0000E+00  0.0000E+00
    -10.988  0.0000E+00  0.0000E+00
    -10.899  0.0000E+00  0.0000E+00
    -10.811  0.0000E+00  0.0000E+00
    -10.722  0.0000E+00  0.0000E+00
    -10.633  0.3299E-03  0.3551E-05
    -10.544  0.4639E-02  0.1873E-03
    -10.455  0.1394E-01  0.9752E-03
    -10.367  0.6771E-01  0.3080E-02
    -10.278  0.1990E-01  0.1164E-01
    -10.189  0.8463E-02  0.1286E-01
    -10.100  0.1843E-02  0.1329E-01
    -10.011  0.0000E+00  0.1333E-01
     -9.923  0.1537E+00  0.1910E-01
     -9.834  0.1239E+00  0.3467E-01
     -9.745  0.1090E+00  0.4169E-01
     -9.656  0.7643E-01  0.5186E-01
     -9.567  0.0000E+00  0.5333E-01
     -9.479  0.0000E+00  0.5333E-01
     -9.390  0.0000E+00  0.5333E-01
     -9.301  0.0000E+00  0.5333E-01
     -9.212  0.0000E+00  0.5333E-01
     -9.123  0.0000E+00  0.5333E-01
     -9.035  0.0000E+00  0.5333E-01
     -8.946  0.0000E+00  0.5333E-01
     -8.857  0.0000E+00  0.5333E-01
     -8.768  0.0000E+00  0.5333E-01
     -8.679  0.0000E+00  0.5333E-01
     -8.591  0.3448E-03  0.5334E-01
     -8.502  0.5898E-02  0.5356E-01
     -8.413  0.1823E-01  0.5458E-01
     -8.324  0.3854E-01  0.5701E-01
     -8.235  0.8389E-01  0.6222E-01
     -8.147  0.1453E+00  0.7472E-01
     -8.058  0.4219E-01  0.8129E-01
     -7.969  0.2058E-01  0.8334E-01
     -7.880  0.2625E-01  0.8542E-01
     -7.791  0.4009E-01  0.8807E-01
     -7.703  0.7496E-01  0.9347E-01
     -7.614  0.3749E-01  0.9829E-01
     -7.525  0.2487E-01  0.1008E+00
     -7.436  0.1950E+00  0.1085E+00
     -7.347  0.7581E-01  0.1180E+00
     -7.259  0.5692E-01  0.1239E+00
     -7.170  0.3942E-01  0.1281E+00
     -7.081  0.2393E-01  0.1309E+00
     -6.992  0.1161E-01  0.1325E+00
     -6.903  0.1218E-01  0.1332E+00
     -6.815  0.6698E-01  0.1366E+00
     -6.726  0.7160E-01  0.1434E+00
     -6.637  0.2395E-02  0.1467E+00
     -6.548  0.7232E-01  0.1501E+00
     -6.459  0.4254E-01  0.1561E+00
     -6.371  0.1913E-01  0.1587E+00
     -6.282  0.3536E-01  0.1602E+00
     -6.193  0.6617E-01  0.1652E+00
     -6.104  0.4246E-01  0.1702E+00
     -6.015  0.4035E-01  0.1733E+00
     -5.927  0.1538E+00  0.1833E+00
     -5.838  0.2728E-01  0.1872E+00
     -5.749  0.6884E-01  0.1920E+00
     -5.660  0.7885E-01  0.1985E+00
     -5.571  0.1010E+00  0.2064E+00
     -5.483  0.9489E-01  0.2164E+00
     -5.394  0.8524E-01  0.2217E+00
     -5.305  0.8148E-01  0.2301E+00
     -5.216  0.5401E-01  0.2348E+00
     -5.127  0.7938E-01  0.2408E+00
     -5.039  0.9143E-01  0.2485E+00
     -4.950  0.7570E-01  0.2587E+00
     -4.861  0.5653E-01  0.2629E+00
     -4.772  0.6351E-01  0.2709E+00
     -4.683  0.2653E-01  0.2729E+00
     -4.595  0.5131E-01  0.2770E+00
     -4.506  0.8464E-02  0.2799E+00
     -4.417  0.6291E-01  0.2827E+00
     -4.328  0.2355E-01  0.2858E+00
     -4.239  0.1509E+00  0.2915E+00
     -4.151  0.7333E-01  0.3013E+00
     -4.062  0.6029E-01  0.3072E+00
     -3.973  0.4732E-01  0.3120E+00
     -3.884  0.3441E-01  0.3156E+00
     -3.795  0.2156E-01  0.3181E+00
     -3.707  0.8789E-02  0.3195E+00
     -3.618  0.2206E-02  0.3199E+00
     -3.529  0.3498E-03  0.3200E+00
     -3.440  0.6444E-07  0.3200E+00
     -3.351  0.4760E-02  0.3201E+00
     -3.263  0.2049E-01  0.3212E+00
     -3.174  0.4171E-01  0.3239E+00
     -3.085  0.6352E-01  0.3286E+00
     -2.996  0.9743E-01  0.3356E+00
     -2.907  0.7079E-01  0.3438E+00
     -2.819  0.3723E-01  0.3478E+00
     -2.730  0.1995E-01  0.3504E+00
     -2.641  0.6439E-01  0.3543E+00
     -2.552  0.5212E-01  0.3599E+00
     -2.463  0.6587E-01  0.3651E+00
     -2.375  0.7527E-01  0.3713E+00
     -2.286  0.8770E-01  0.3785E+00
     -2.197  0.9995E-01  0.3870E+00
     -2.108  0.4745E-01  0.3942E+00
     -2.019  0.6498E-01  0.3987E+00
     -1.931  0.1181E+00  0.4070E+00
     -1.842  0.7082E-01  0.4154E+00
     -1.753  0.4902E-01  0.4207E+00
     -1.664  0.2345E+00  0.4287E+00
     -1.575  0.1173E+00  0.4413E+00
     -1.487  0.1481E+00  0.4518E+00
     -1.398  0.1243E+00  0.4659E+00
     -1.309  0.1813E+00  0.4772E+00
     -1.220  0.6180E-01  0.4893E+00
     -1.131  0.2159E-01  0.4927E+00
     -1.043  0.2078E-01  0.4943E+00
     -0.954  0.7182E-01  0.4974E+00
     -0.865  0.1346E+00  0.5069E+00
     -0.776  0.1659E+00  0.5207E+00
     -0.687  0.6831E-01  0.5304E+00
     -0.599  0.5259E-01  0.5356E+00
     -0.510  0.1672E+00  0.5444E+00
     -0.421  0.1821E+00  0.5612E+00
     -0.332  0.9860E-01  0.5751E+00
     -0.243  0.7586E-01  0.5826E+00
     -0.155  0.1600E+00  0.5931E+00
     -0.066  0.3766E-01  0.5983E+00
      0.023  0.3043E-01  0.6011E+00
      0.112  0.3824E-01  0.6042E+00
      0.201  0.4738E-01  0.6080E+00
      0.289  0.5598E-01  0.6126E+00
      0.378  0.6418E-01  0.6179E+00
      0.467  0.7198E-01  0.6240E+00
      0.556  0.7560E-01  0.6319E+00
      0.645  0.6257E-01  0.6362E+00
      0.734  0.9083E-01  0.6432E+00
      0.822  0.8540E-01  0.6513E+00
      0.911  0.1831E+00  0.6679E+00
      1.000  0.1794E+00  0.6792E+00
      1.089  0.1406E+00  0.6945E+00
      1.178  0.1038E+00  0.7046E+00
      1.266  0.1359E+00  0.7157E+00
      1.355  0.1215E+00  0.7259E+00
      1.444  0.9729E-01  0.7357E+00
      1.533  0.1102E+00  0.7453E+00
      1.622  0.1897E+00  0.7551E+00
      1.710  0.2033E+00  0.7689E+00
      1.799  0.1314E+00  0.7867E+00
      1.888  0.1495E+00  0.7920E+00
      1.977  0.2586E+00  0.8147E+00
      2.066  0.1263E+00  0.8371E+00
      2.154  0.1016E+00  0.8472E+00
      2.243  0.7660E-01  0.8551E+00
      2.332  0.5142E-01  0.8608E+00
      2.421  0.2787E-01  0.8643E+00
      2.510  0.1478E-01  0.8660E+00
      2.598  0.4356E-01  0.8681E+00
      2.687  0.3492E+00  0.8837E+00
      2.776  0.3845E+00  0.9196E+00
      2.865  0.6829E+00  0.9489E+00
      2.954  0.9108E-01  0.9650E+00
      3.042  0.1499E+00  0.9722E+00
      3.131  0.6814E-01  0.9841E+00
      3.220  0.1269E+00  0.9905E+00
      3.309  0.1311E+00  0.9988E+00
      3.398  0.1677E+00  0.1013E+01
      3.486  0.1688E+00  0.1029E+01
      3.575  0.2312E+00  0.1048E+01
      3.664  0.9054E-01  0.1061E+01
      3.753  0.1440E+00  0.1072E+01
      3.842  0.1160E+00  0.1084E+01
      3.930  0.3422E+00  0.1095E+01
      4.019  0.3182E-01  0.1106E+01
      4.108  0.1005E-03  0.1107E+01
      4.197  0.6706E-01  0.1108E+01
      4.286  0.1994E+00  0.1120E+01
      4.374  0.1241E+00  0.1137E+01
      4.463  0.9446E-01  0.1144E+01
      4.552  0.9459E-01  0.1152E+01
      4.641  0.4369E-01  0.1159E+01
      4.730  0.3858E-01  0.1162E+01
      4.818  0.5107E-01  0.1166E+01
      4.907  0.7050E-01  0.1172E+01
      4.996  0.1557E-01  0.1176E+01
      5.085  0.3188E-01  0.1178E+01
      5.174  0.4157E-01  0.1181E+01
      5.262  0.3277E-01  0.1185E+01
      5.351  0.5489E-02  0.1187E+01
      5.440  0.3752E-04  0.1187E+01
      5.529  0.0000E+00  0.1187E+01
      5.618  0.0000E+00  0.1187E+01
      5.706  0.3822E-01  0.1187E+01
      5.795  0.1810E+00  0.1201E+01
      5.884  0.1087E+00  0.1211E+01
      5.973  0.1396E+00  0.1224E+01
      6.062  0.0000E+00  0.1227E+01
      6.150  0.7741E-03  0.1227E+01
      6.239  0.3168E-02  0.1227E+01
      6.328  0.7183E-02  0.1227E+01
      6.417  0.1626E-01  0.1228E+01
      6.506  0.3087E-01  0.1230E+01
      6.594  0.3792E-01  0.1233E+01
      6.683  0.3740E-01  0.1237E+01
      6.772  0.2931E-01  0.1240E+01
      6.861  0.6951E-01  0.1243E+01
      6.950  0.7074E-01  0.1250E+01
      7.038  0.6034E-01  0.1256E+01
      7.127  0.5195E-01  0.1261E+01
      7.216  0.1988E+00  0.1266E+01
      7.305  0.3395E-01  0.1275E+01
      7.394  0.2070E-01  0.1277E+01
      7.482  0.1232E-01  0.1279E+01
      7.571  0.6200E-02  0.1280E+01
      7.660  0.2161E-02  0.1280E+01
      7.749  0.2025E-03  0.1280E+01
      7.838  0.0000E+00  0.1280E+01
      7.926  0.0000E+00  0.1280E+01
      8.015  0.0000E+00  0.1280E+01
      8.104  0.0000E+00  0.1280E+01
      8.193  0.0000E+00  0.1280E+01
      8.282  0.0000E+00  0.1280E+01
      8.370  0.0000E+00  0.1280E+01
      8.459  0.0000E+00  0.1280E+01
      8.548  0.0000E+00  0.1280E+01
      8.637  0.0000E+00  0.1280E+01
      8.726  0.0000E+00  0.1280E+01
      8.814  0.1244E-03  0.1280E+01
      8.903  0.1643E-02  0.1280E+01
      8.992  0.4888E-02  0.1280E+01
      9.081  0.9860E-02  0.1281E+01
      9.170  0.1656E-01  0.1282E+01
      9.258  0.2964E-01  0.1284E+01
      9.347  0.4055E-01  0.1287E+01
      9.436  0.2520E-01  0.1290E+01
      9.525  0.2009E-01  0.1292E+01
      9.614  0.5914E-01  0.1296E+01
      9.702  0.7825E-01  0.1302E+01
      9.791  0.7090E-01  0.1309E+01
      9.880  0.5380E-01  0.1314E+01
      9.969  0.3500E-01  0.1318E+01
     10.058  0.3528E-01  0.1321E+01
     10.146  0.9147E-01  0.1326E+01
     10.235  0.3968E-01  0.1332E+01
     10.324  0.4166E-01  0.1335E+01
     10.413  0.6353E-01  0.1340E+01
     10.502  0.1346E+00  0.1352E+01
     10.590  0.6589E-01  0.1362E+01
     10.679  0.3878E-01  0.1365E+01
     10.768  0.4729E-01  0.1369E+01
     10.857  0.5295E-01  0.1374E+01
     10.946  0.5451E-01  0.1378E+01
     11.034  0.8368E-01  0.1384E+01
     11.123  0.2385E+00  0.1397E+01
     11.212  0.7030E-01  0.1412E+01
     11.301  0.4320E-01  0.1417E+01
     11.390  0.9385E-01  0.1422E+01
     11.478  0.1028E+00  0.1434E+01
     11.567  0.5335E-01  0.1441E+01
     11.656  0.2738E-01  0.1443E+01
     11.745  0.3624E-01  0.1446E+01
     11.834  0.4251E-01  0.1450E+01
     11.922  0.4740E-01  0.1454E+01
     12.011  0.5119E-01  0.1458E+01
     12.100  0.5390E-01  0.1463E+01
     12.189  0.5552E-01  0.1468E+01
     12.278  0.5605E-01  0.1473E+01
     12.366  0.5549E-01  0.1478E+01
     12.455  0.4888E-01  0.1482E+01
     12.544  0.1846E+00  0.1495E+01
     12.633  0.5079E-01  0.1501E+01
     12.722  0.5490E-01  0.1506E+01
     12.810  0.5600E-01  0.1510E+01
     12.899  0.6470E-01  0.1516E+01
     12.988  0.6826E-01  0.1522E+01
     13.077  0.3831E-01  0.1527E+01
     13.166  0.3034E-01  0.1530E+01
     13.254  0.6034E-01  0.1532E+01
     13.343  0.7491E-01  0.1544E+01
     13.432  0.4874E-01  0.1549E+01
     13.521  0.2873E-01  0.1553E+01
     13.610  0.0000E+00  0.1553E+01
     13.698  0.0000E+00  0.1553E+01
     13.787  0.0000E+00  0.1553E+01
     13.876  0.0000E+00  0.1553E+01
     13.965  0.0000E+00  0.1553E+01
     14.054  0.0000E+00  0.1553E+01
     14.143  0.0000E+00  0.1553E+01
     14.231  0.0000E+00  0.1553E+01
     14.320  0.0000E+00  0.1553E+01
     14.409  0.0000E+00  0.1553E+01
     14.498  0.0000E+00  0.1553E+01
     14.587  0.0000E+00  0.1553E+01
     14.675  0.0000E+00  0.1553E+01
     14.764  0.0000E+00  0.1553E+01
