 vasp.6.2.0 18Jan21 (build Feb 25 2021 07:51:20) complex                         
 executed on             LinuxPGI date 2022.04.06  17:57:34
 running on    1 total cores
 distrk:  each k-point on    1 cores,    1 groups
 distr:  one band on NCORE=   1 cores,    1 groups


--------------------------------------------------------------------------------------------------------


 INCAR:
   ALGO = Fast
   PREC = Accurate
   EDIFF = 1E-6
   ENCUT = 700
   ISMEAR = -5
   IBRION = 2
   ISIF = 4
   LREAL = Auto
   LWAVE = False
   LCHARGE = False
   NSW = 300
   SIGMA = 0.05

 POTCAR:    PAW_PBE B 06Sep2000                   
 POTCAR:    PAW_PBE C 08Apr2002                   
 POTCAR:    PAW_PBE B 06Sep2000                   
   VRHFIN =B: s2p1                                                                                  
   LEXCH  = PE                                                                                      
   EATOM  =    71.1703 eV,    5.2309 Ry                                                             
                                                                                                    
   TITEL  = PAW_PBE B 06Sep2000                                                                     
   LULTRA =        F    use ultrasoft PP ?                                                          
   IUNSCR =        1    unscreen: 0-lin 1-nonlin 2-no                                               
   RPACOR =    1.200    partial core radius                                                         
   POMASS =   10.811; ZVAL   =    3.000    mass and valenz                                          
   RCORE  =    1.700    outmost cutoff radius                                                       
   RWIGS  =    1.710; RWIGS  =    0.905    wigner-seitz radius (au A)                               
   ENMAX  =  318.614; ENMIN  =  238.960 eV                                                          
   ICORE  =        2    local potential                                                             
   LCOR   =        T    correct aug charges                                                         
   LPAW   =        T    paw PP                                                                      
   EAUG   =  535.514                                                                                
   DEXC   =    0.000                                                                                
   RMAX   =    1.732    core radius for proj-oper                                                   
   RAUG   =    1.300    factor for augmentation sphere                                              
   RDEP   =    1.757    radius for radial grids                                                     
   RDEPT  =    1.436    core radius for aug-charge                                                  
                                                                                                    
   Atomic configuration                                                                             
    4 entries                                                                                       
     n  l   j            E        occ.                                                              
     1  0  0.50      -180.5896   2.0000                                                             
     2  0  0.50        -9.4431   2.0000                                                             
     2  1  0.50        -3.6068   1.0000                                                             
     3  2  1.50        -4.0817   0.0000                                                             
   Description                                                                                      
     l       E           TYP  RCUT    TYP  RCUT                                                     
     0     -9.4430752     23  1.500                                                                 
     0      0.8675899     23  1.500                                                                 
     1     -3.6067955     23  1.700                                                                 
     1      6.1086146     23  1.700                                                                 
     2     -4.0817478      7  1.700                                                                 
  local pseudopotential read in
  partial core-charges read in
  partial kinetic energy density read in
  atomic valenz-charges read in
  non local Contribution for L=            0  read in
    real space projection operators read in
  non local Contribution for L=            0  read in
    real space projection operators read in
  non local Contribution for L=            1  read in
    real space projection operators read in
  non local Contribution for L=            1  read in
    real space projection operators read in
    PAW grid and wavefunctions read in
 
   number of l-projection  operators is LMAX  =            4
   number of lm-projection operators is LMMAX =            8
 
 POTCAR:    PAW_PBE C 08Apr2002                   
   VRHFIN =C: s2p2                                                                                  
   LEXCH  = PE                                                                                      
   EATOM  =   147.1560 eV,   10.8157 Ry                                                             
                                                                                                    
   TITEL  = PAW_PBE C 08Apr2002                                                                     
   LULTRA =        F    use ultrasoft PP ?                                                          
   IUNSCR =        1    unscreen: 0-lin 1-nonlin 2-no                                               
   RPACOR =    1.200    partial core radius                                                         
   POMASS =   12.011; ZVAL   =    4.000    mass and valenz                                          
   RCORE  =    1.500    outmost cutoff radius                                                       
   RWIGS  =    1.630; RWIGS  =    0.863    wigner-seitz radius (au A)                               
   ENMAX  =  400.000; ENMIN  =  300.000 eV                                                          
   ICORE  =        2    local potential                                                             
   LCOR   =        T    correct aug charges                                                         
   LPAW   =        T    paw PP                                                                      
   EAUG   =  644.873                                                                                
   DEXC   =    0.000                                                                                
   RMAX   =    1.529    core radius for proj-oper                                                   
   RAUG   =    1.300    factor for augmentation sphere                                              
   RDEP   =    1.501    radius for radial grids                                                     
   RDEPT  =    1.300    core radius for aug-charge                                                  
                                                                                                    
   Atomic configuration                                                                             
    4 entries                                                                                       
     n  l   j            E        occ.                                                              
     1  0  0.50      -273.3789   2.0000                                                             
     2  0  0.50       -13.7508   2.0000                                                             
     2  1  0.50        -5.2854   2.0000                                                             
     3  2  1.50        -5.4423   0.0000                                                             
   Description                                                                                      
     l       E           TYP  RCUT    TYP  RCUT                                                     
     0    -13.7508458     23  1.200                                                                 
     0     -8.2022199     23  1.200                                                                 
     1     -5.2854383     23  1.500                                                                 
     1     34.0145650     23  1.500                                                                 
     2     -5.4423304      7  1.500                                                                 
  local pseudopotential read in
  partial core-charges read in
  partial kinetic energy density read in
  atomic valenz-charges read in
  non local Contribution for L=            0  read in
    real space projection operators read in
  non local Contribution for L=            0  read in
    real space projection operators read in
  non local Contribution for L=            1  read in
    real space projection operators read in
  non local Contribution for L=            1  read in
    real space projection operators read in
    PAW grid and wavefunctions read in
 
   number of l-projection  operators is LMAX  =            4
   number of lm-projection operators is LMMAX =            8
 
 Optimization of the real space projectors (new method)

 maximal supplied QI-value         = 22.11
 optimisation between [QCUT,QGAM] = [ 13.49, 26.97] = [ 50.94,203.75] Ry 
 Optimized for a Real-space Cutoff    1.14 Angstroem

   l    n(q)    QCUT    max X(q) W(low)/X(q) W(high)/X(q)  e(spline) 
   0      9    13.487    53.033    0.17E-03    0.11E-03    0.20E-06
   0      9    13.487    34.740    0.17E-03    0.11E-03    0.20E-06
   1      9    13.487    30.949    0.61E-04    0.25E-04    0.11E-06
   1      9    13.487    19.518    0.55E-04    0.23E-04    0.10E-06
 Optimization of the real space projectors (new method)

 maximal supplied QI-value         = 25.13
 optimisation between [QCUT,QGAM] = [ 13.32, 26.89] = [ 49.69,202.52] Ry 
 Optimized for a Real-space Cutoff    1.07 Angstroem

   l    n(q)    QCUT    max X(q) W(low)/X(q) W(high)/X(q)  e(spline) 
   0      9    13.321   115.676    0.24E-03    0.18E-03    0.16E-06
   0      9    13.321    87.132    0.24E-03    0.18E-03    0.16E-06
   1      8    13.321     4.429    0.20E-03    0.27E-03    0.12E-06
   1      8    13.321     2.733    0.16E-03    0.21E-03    0.12E-06
  PAW_PBE B 06Sep2000                   :
 energy of atom  1       EATOM=  -71.1703
 kinetic energy error for atom=    0.0004 (will be added to EATOM!!)
  PAW_PBE C 08Apr2002                   :
 energy of atom  2       EATOM= -147.1560
 kinetic energy error for atom=    0.0032 (will be added to EATOM!!)
 
 
 POSCAR: B96 C16
  positions in direct lattice
  No initial velocities read in
 exchange correlation table for  LEXCH =        8
   RHO(1)=    0.500       N(1)  =     2000
   RHO(2)=  100.500       N(2)  =     4000
 


--------------------------------------------------------------------------------------------------------


 ion  position               nearest neighbor table
   1  0.160  0.401  0.401-  97 1.50  76 1.72  42 1.73  35 1.73  66 1.75  59 1.75
   2  0.160  0.401  0.901-  98 1.50  75 1.72  41 1.73  36 1.73  65 1.75  60 1.75
   3  0.160  0.901  0.401-  99 1.50  74 1.72  44 1.73  33 1.73  68 1.75  57 1.75
   4  0.160  0.901  0.901- 100 1.50  73 1.72  43 1.73  34 1.73  67 1.75  58 1.75
   5  0.660  0.401  0.401- 101 1.50  80 1.72  46 1.73  39 1.73  70 1.75  63 1.75
   6  0.660  0.401  0.901- 102 1.50  79 1.72  45 1.73  40 1.73  69 1.75  64 1.75
   7  0.660  0.901  0.401- 103 1.50  78 1.72  48 1.73  37 1.73  72 1.75  61 1.75
   8  0.660  0.901  0.901- 104 1.50  77 1.72  47 1.73  38 1.73  71 1.75  62 1.75
   9  0.401  0.401  0.160-  97 1.50  87 1.72  45 1.73  27 1.73  51 1.75  69 1.75
  10  0.401  0.401  0.660-  98 1.50  88 1.72  46 1.73  28 1.73  52 1.75  70 1.75
  11  0.401  0.901  0.160-  99 1.50  85 1.72  47 1.73  25 1.73  49 1.75  71 1.75
  12  0.401  0.901  0.660- 100 1.50  86 1.72  48 1.73  26 1.73  50 1.75  72 1.75
  13  0.901  0.401  0.160- 101 1.50  83 1.72  41 1.73  31 1.73  55 1.75  65 1.75
  14  0.901  0.401  0.660- 102 1.50  84 1.72  42 1.73  32 1.73  56 1.75  66 1.75
  15  0.901  0.901  0.160- 103 1.50  81 1.72  43 1.73  29 1.73  53 1.75  67 1.75
  16  0.901  0.901  0.660- 104 1.50  82 1.72  44 1.73  30 1.73  54 1.75  68 1.75
  17  0.401  0.160  0.401-  97 1.50  94 1.72  26 1.73  37 1.73  50 1.75  61 1.75
  18  0.401  0.160  0.901-  98 1.50  93 1.72  25 1.73  38 1.73  49 1.75  62 1.75
  19  0.401  0.660  0.401-  99 1.50  96 1.72  28 1.73  39 1.73  52 1.75  63 1.75
  20  0.401  0.660  0.901- 100 1.50  95 1.72  27 1.73  40 1.73  51 1.75  64 1.75
  21  0.901  0.160  0.401- 101 1.50  90 1.72  30 1.73  33 1.73  54 1.75  57 1.75
  22  0.901  0.160  0.901- 102 1.50  89 1.72  29 1.73  34 1.73  53 1.75  58 1.75
  23  0.901  0.660  0.401- 103 1.50  92 1.72  32 1.73  35 1.73  56 1.75  59 1.75
  24  0.901  0.660  0.901- 104 1.50  91 1.72  31 1.73  36 1.73  55 1.75  60 1.75
  25  0.340  0.099  0.099- 105 1.50  49 1.72  18 1.73  11 1.73  93 1.75  85 1.75
  26  0.340  0.099  0.599- 106 1.50  50 1.72  17 1.73  12 1.73  94 1.75  86 1.75
  27  0.340  0.599  0.099- 107 1.50  51 1.72  20 1.73   9 1.73  95 1.75  87 1.75
  28  0.340  0.599  0.599- 108 1.50  52 1.72  19 1.73  10 1.73  96 1.75  88 1.75
  29  0.840  0.099  0.099- 109 1.50  53 1.72  22 1.73  15 1.73  89 1.75  81 1.75
  30  0.840  0.099  0.599- 110 1.50  54 1.72  21 1.73  16 1.73  90 1.75  82 1.75
  31  0.840  0.599  0.099- 111 1.50  55 1.72  24 1.73  13 1.73  91 1.75  83 1.75
  32  0.840  0.599  0.599- 112 1.50  56 1.72  23 1.73  14 1.73  92 1.75  84 1.75
  33  0.099  0.099  0.340- 105 1.50  57 1.72  21 1.73   3 1.73  74 1.75  90 1.75
  34  0.099  0.099  0.840- 106 1.50  58 1.72  22 1.73   4 1.73  73 1.75  89 1.75
  35  0.099  0.599  0.340- 107 1.50  59 1.72  23 1.73   1 1.73  76 1.75  92 1.75
  36  0.099  0.599  0.840- 108 1.50  60 1.72  24 1.73   2 1.73  75 1.75  91 1.75
  37  0.599  0.099  0.340- 109 1.50  61 1.72  17 1.73   7 1.73  78 1.75  94 1.75
  38  0.599  0.099  0.840- 110 1.50  62 1.72  18 1.73   8 1.73  77 1.75  93 1.75
  39  0.599  0.599  0.340- 111 1.50  63 1.72  19 1.73   5 1.73  80 1.75  96 1.75
  40  0.599  0.599  0.840- 112 1.50  64 1.72  20 1.73   6 1.73  79 1.75  95 1.75
  41  0.099  0.340  0.099- 105 1.50  65 1.72   2 1.73  13 1.73  75 1.75  83 1.75
  42  0.099  0.340  0.599- 106 1.50  66 1.72   1 1.73  14 1.73  76 1.75  84 1.75
  43  0.099  0.840  0.099- 107 1.50  67 1.72   4 1.73  15 1.73  73 1.75  81 1.75
  44  0.099  0.840  0.599- 108 1.50  68 1.72   3 1.73  16 1.73  74 1.75  82 1.75
  45  0.599  0.340  0.099- 109 1.50  69 1.72   6 1.73   9 1.73  79 1.75  87 1.75
  46  0.599  0.340  0.599- 110 1.50  70 1.72   5 1.73  10 1.73  80 1.75  88 1.75
  47  0.599  0.840  0.099- 111 1.50  71 1.72   8 1.73  11 1.73  77 1.75  85 1.75
  48  0.599  0.840  0.599- 112 1.50  72 1.72   7 1.73  12 1.73  78 1.75  86 1.75
  49  0.332  0.000  0.000-  73 1.65  25 1.72  11 1.75  18 1.75  62 1.81  71 1.81
  50  0.332  0.000  0.500-  74 1.65  26 1.72  12 1.75  17 1.75  61 1.81  72 1.81
  51  0.332  0.500  0.000-  75 1.65  27 1.72   9 1.75  20 1.75  64 1.81  69 1.81
  52  0.332  0.500  0.500-  76 1.65  28 1.72  10 1.75  19 1.75  63 1.81  70 1.81
  53  0.832  0.000  0.000-  77 1.65  29 1.72  15 1.75  22 1.75  58 1.81  67 1.81
  54  0.832  0.000  0.500-  78 1.65  30 1.72  16 1.75  21 1.75  57 1.81  68 1.81
  55  0.832  0.500  0.000-  79 1.65  31 1.72  13 1.75  24 1.75  60 1.81  65 1.81
  56  0.832  0.500  0.500-  80 1.65  32 1.72  14 1.75  23 1.75  59 1.81  66 1.81
  57  0.000  0.000  0.332-  81 1.65  33 1.72   3 1.75  21 1.75  68 1.81  54 1.81
  58  0.000  0.000  0.832-  82 1.65  34 1.72   4 1.75  22 1.75  67 1.81  53 1.81
  59  0.000  0.500  0.332-  83 1.65  35 1.72   1 1.75  23 1.75  66 1.81  56 1.81
  60  0.000  0.500  0.832-  84 1.65  36 1.72   2 1.75  24 1.75  65 1.81  55 1.81
  61  0.500  0.000  0.332-  85 1.65  37 1.72   7 1.75  17 1.75  72 1.81  50 1.81
  62  0.500  0.000  0.832-  86 1.65  38 1.72   8 1.75  18 1.75  71 1.81  49 1.81
  63  0.500  0.500  0.332-  87 1.65  39 1.72   5 1.75  19 1.75  70 1.81  52 1.81
  64  0.500  0.500  0.832-  88 1.65  40 1.72   6 1.75  20 1.75  69 1.81  51 1.81
  65  0.000  0.332  0.000-  89 1.65  41 1.72   2 1.75  13 1.75  60 1.81  55 1.81
  66  0.000  0.332  0.500-  90 1.65  42 1.72   1 1.75  14 1.75  59 1.81  56 1.81
  67  0.000  0.832  0.000-  91 1.65  43 1.72   4 1.75  15 1.75  58 1.81  53 1.81
  68  0.000  0.832  0.500-  92 1.65  44 1.72   3 1.75  16 1.75  57 1.81  54 1.81
  69  0.500  0.332  0.000-  93 1.65  45 1.72   6 1.75   9 1.75  64 1.81  51 1.81
  70  0.500  0.332  0.500-  94 1.65  46 1.72   5 1.75  10 1.75  63 1.81  52 1.81
  71  0.500  0.832  0.000-  95 1.65  47 1.72   8 1.75  11 1.75  62 1.81  49 1.81
  72  0.500  0.832  0.500-  96 1.65  48 1.72   7 1.75  12 1.75  61 1.81  50 1.81
  73  0.168  1.000  1.000-  49 1.65   4 1.72  34 1.75  43 1.75  81 1.81  89 1.81
  74  0.168  1.000  0.500-  50 1.65   3 1.72  33 1.75  44 1.75  82 1.81  90 1.81
  75  0.168  0.500  1.000-  51 1.65   2 1.72  36 1.75  41 1.75  83 1.81  91 1.81
  76  0.168  0.500  0.500-  52 1.65   1 1.72  35 1.75  42 1.75  84 1.81  92 1.81
  77  0.668  1.000  1.000-  53 1.65   8 1.72  38 1.75  47 1.75  85 1.81  93 1.81
  78  0.668  1.000  0.500-  54 1.65   7 1.72  37 1.75  48 1.75  86 1.81  94 1.81
  79  0.668  0.500  1.000-  55 1.65   6 1.72  40 1.75  45 1.75  87 1.81  95 1.81
  80  0.668  0.500  0.500-  56 1.65   5 1.72  39 1.75  46 1.75  88 1.81  96 1.81
  81  1.000  1.000  0.168-  57 1.65  15 1.72  29 1.75  43 1.75  89 1.81  73 1.81
  82  1.000  1.000  0.668-  58 1.65  16 1.72  30 1.75  44 1.75  90 1.81  74 1.81
  83  1.000  0.500  0.168-  59 1.65  13 1.72  31 1.75  41 1.75  91 1.81  75 1.81
  84  1.000  0.500  0.668-  60 1.65  14 1.72  32 1.75  42 1.75  92 1.81  76 1.81
  85  0.500  1.000  0.168-  61 1.65  11 1.72  25 1.75  47 1.75  93 1.81  77 1.81
  86  0.500  1.000  0.668-  62 1.65  12 1.72  26 1.75  48 1.75  94 1.81  78 1.81
  87  0.500  0.500  0.168-  63 1.65   9 1.72  27 1.75  45 1.75  95 1.81  79 1.81
  88  0.500  0.500  0.668-  64 1.65  10 1.72  28 1.75  46 1.75  96 1.81  80 1.81
  89  1.000  0.168  1.000-  65 1.65  22 1.72  29 1.75  34 1.75  81 1.81  73 1.81
  90  1.000  0.168  0.500-  66 1.65  21 1.72  30 1.75  33 1.75  82 1.81  74 1.81
  91  1.000  0.668  1.000-  67 1.65  24 1.72  31 1.75  36 1.75  83 1.81  75 1.81
  92  1.000  0.668  0.500-  68 1.65  23 1.72  32 1.75  35 1.75  84 1.81  76 1.81
  93  0.500  0.168  1.000-  69 1.65  18 1.72  25 1.75  38 1.75  85 1.81  77 1.81
  94  0.500  0.168  0.500-  70 1.65  17 1.72  26 1.75  37 1.75  86 1.81  78 1.81
  95  0.500  0.668  1.000-  71 1.65  20 1.72  27 1.75  40 1.75  87 1.81  79 1.81
  96  0.500  0.668  0.500-  72 1.65  19 1.72  28 1.75  39 1.75  88 1.81  80 1.81
  97  0.315  0.315  0.315-   9 1.50  17 1.50   1 1.50
  98  0.315  0.315  0.815-  10 1.50  18 1.50   2 1.50
  99  0.315  0.815  0.315-  11 1.50  19 1.50   3 1.50
 100  0.315  0.815  0.815-  12 1.50  20 1.50   4 1.50
 101  0.815  0.315  0.315-  13 1.50  21 1.50   5 1.50
 102  0.815  0.315  0.815-  14 1.50  22 1.50   6 1.50
 103  0.815  0.815  0.315-  15 1.50  23 1.50   7 1.50
 104  0.815  0.815  0.815-  16 1.50  24 1.50   8 1.50
 105  0.185  0.185  0.185-  33 1.50  41 1.50  25 1.50
 106  0.185  0.185  0.685-  34 1.50  42 1.50  26 1.50
 107  0.185  0.685  0.185-  35 1.50  43 1.50  27 1.50
 108  0.185  0.685  0.685-  36 1.50  44 1.50  28 1.50
 109  0.685  0.185  0.185-  37 1.50  45 1.50  29 1.50
 110  0.685  0.185  0.685-  38 1.50  46 1.50  30 1.50
 111  0.685  0.685  0.185-  39 1.50  47 1.50  31 1.50
 112  0.685  0.685  0.685-  40 1.50  48 1.50  32 1.50
 
  LATTYP: Found a trigonal (rhomboedric) cell.
 ALAT       =    10.0419834782
 COS(alpha) =     0.4242225638
  
  Lattice vectors:
  
 A1 = (   9.1332820000,   0.0703250000,   4.1736850000)
 A2 = (   2.7094490000,   8.7224240000,   4.1736850000)
 A3 = (   0.0947180000,   0.0703250000,  10.0412900000)


Analysis of symmetry for initial positions (statically):
=====================================================================
 Subroutine PRICEL returns following result:
 
  LATTYP: Found a trigonal (rhomboedric) cell.
 ALAT       =     5.0209917391
 COS(alpha) =     0.4242225638
  
  Lattice vectors:
  
 A1 = (   4.5666410000,   0.0351625000,   2.0868425000)
 A2 = (   1.3547245000,   4.3612120000,   2.0868425000)
 A3 = (   0.0473590000,   0.0351625000,   5.0206450000)
 
   8 primitive cells build up your supercell.
 

 Routine SETGRP: Setting up the symmetry group for a 
 trigonal (rhombohedral) supercell.


 Subroutine GETGRP returns: Found 12 space group operations
 (whereof 12 operations were pure point group operations)
 out of a pool of 12 trial point group operations.


The static configuration has the point symmetry D_3d.


Analysis of symmetry for dynamics (positions and initial velocities):
=====================================================================
 Subroutine PRICEL returns following result:
 
  LATTYP: Found a trigonal (rhomboedric) cell.
 ALAT       =     5.0209917391
 COS(alpha) =     0.4242225638
  
  Lattice vectors:
  
 A1 = (   4.5666410000,   0.0351625000,   2.0868425000)
 A2 = (   1.3547245000,   4.3612120000,   2.0868425000)
 A3 = (   0.0473590000,   0.0351625000,   5.0206450000)
 
   8 primitive cells build up your supercell.
 

 Routine SETGRP: Setting up the symmetry group for a 
 trigonal (rhombohedral) supercell.


 Subroutine GETGRP returns: Found 12 space group operations
 (whereof 12 operations were pure point group operations)
 out of a pool of 12 trial point group operations.


The dynamic configuration has the point symmetry D_3d.


 Subroutine INISYM returns: Found 12 space group operations
 (whereof 12 operations are pure point group operations),
 and found     8 'primitive' translations


----------------------------------------------------------------------------------------

                                     Primitive cell                                     

  volume of cell :      99.0892

  direct lattice vectors                    reciprocal lattice vectors
     4.566641000  0.035162500  2.086842500     0.220233021 -0.067643684 -0.001603677
     1.354724500  4.361212000  2.086842500    -0.001041080  0.230384820 -0.001603699
     0.047359000  0.035162500  5.020645000    -0.091107628 -0.067643723  0.200510749

  length of vectors
     5.020991739  5.020991954  5.020991485     0.230392759  0.230392754  0.230392781

  position of ions in fractional coordinates (direct lattice)
     0.320790000  0.801030000  0.801030000
     0.801030000  0.801030000  0.320790000
     0.801030000  0.320790000  0.801030000
     0.679210000  0.198970000  0.198970000
     0.198970000  0.198970000  0.679210000
     0.198970000  0.679210000  0.198970000
     0.664586000  0.000230000  0.000230000
     0.000230000  0.000230000  0.664586000
     0.000230000  0.664586000  0.000230000
     0.335414000  0.999770000  0.999770000
     0.999770000  0.999770000  0.335414000
     0.999770000  0.335414000  0.999770000
     0.630794000  0.630794000  0.630794000
     0.369206000  0.369206000  0.369206000

  ion indices of the primitive-cell ions
   primitive index   ion index
                 1           1
                 2           9
                 3          17
                 4          28
                 5          35
                 6          42
                 7          52
                 8          59
                 9          66
                10          76
                11          83
                12          90
                13          97
                14         105

----------------------------------------------------------------------------------------

 
 -----------------------------------------------------------------------------
|                                                                             |
|           W    W    AA    RRRRR   N    N  II  N    N   GGGG   !!!           |
|           W    W   A  A   R    R  NN   N  II  NN   N  G    G  !!!           |
|           W    W  A    A  R    R  N N  N  II  N N  N  G       !!!           |
|           W WW W  AAAAAA  RRRRR   N  N N  II  N  N N  G  GGG   !            |
|           WW  WW  A    A  R   R   N   NN  II  N   NN  G    G                |
|           W    W  A    A  R    R  N    N  II  N    N   GGGG   !!!           |
|                                                                             |
|     The requested file  could not be found or opened for reading            |
|     k-point information. Automatic k-point generation is used as a          |
|     fallback, which may lead to unwanted results.                           |
|                                                                             |
 -----------------------------------------------------------------------------

 

Automatic generation of k-mesh.
 Grid dimensions derived from KSPACING:
 generate k-points for:    2    2    2

 Generating k-lattice:

  Cartesian coordinates                     Fractional coordinates (reciprocal lattice)
     0.055058255 -0.016910921 -0.000400919     0.500000000 -0.000000000 -0.000000000
    -0.000260270  0.057596205 -0.000400925    -0.000000000  0.500000000 -0.000000000
    -0.022776907 -0.016910931  0.050127687     0.000000000  0.000000000  0.500000000

  Length of vectors
     0.057598190  0.057598189  0.057598195

  Shift w.r.t. Gamma in fractional coordinates (k-lattice)
     0.000000000  0.000000000  0.000000000

 TETIRR: Found      4 inequivalent tetrahedra from       48
 
 Subroutine IBZKPT returns following result:
 ===========================================
 
 Found      4 irreducible k-points:
 
 Following reciprocal coordinates:
            Coordinates               Weight
  0.000000  0.000000  0.000000      1.000000
  0.500000  0.000000  0.000000      3.000000
  0.500000  0.500000  0.000000      3.000000
  0.500000  0.500000  0.500000      1.000000
 
 Following cartesian coordinates:
            Coordinates               Weight
  0.000000  0.000000  0.000000      1.000000
  0.055058 -0.016911 -0.000401      3.000000
  0.054798  0.040685 -0.000802      3.000000
  0.032021  0.023774  0.049326      1.000000
 


--------------------------------------------------------------------------------------------------------




 Dimension of arrays:
   k-points           NKPTS =      4   k-points in BZ     NKDIM =      4   number of bands    NBANDS=    233
   number of dos      NEDOS =    301   number of ions     NIONS =    112
   non local maximal  LDIM  =      4   non local SUM 2l+1 LMDIM =      8
   total plane-waves  NPLWV = 729000
   max r-space proj   IRMAX =   5762   max aug-charges    IRDMAX=  14539
   dimension x,y,z NGX =    90 NGY =   90 NGZ =   90
   dimension x,y,z NGXF=   180 NGYF=  180 NGZF=  180
   support grid    NGXF=   180 NGYF=  180 NGZF=  180
   ions per type =              96  16
   NGX,Y,Z   is equivalent  to a cutoff of  14.90, 14.90, 14.90 a.u.
   NGXF,Y,Z  is equivalent  to a cutoff of  29.80, 29.80, 29.80 a.u.

 SYSTEM =  unknown system                          
 POSCAR =  B96 C16                                 

 Startparameter for this run:
   NWRITE =      2    write-flag & timer
   PREC   = accura    normal or accurate (medium, high low for compatibility)
   ISTART =      0    job   : 0-new  1-cont  2-samecut
   ICHARG =      2    charge: 1-file 2-atom 10-const
   ISPIN  =      1    spin polarized calculation?
   LNONCOLLINEAR =      F non collinear calculations
   LSORBIT =      F    spin-orbit coupling
   INIWAV =      1    electr: 0-lowe 1-rand  2-diag
   LASPH  =      F    aspherical Exc in radial PAW
   METAGGA=      F    non-selfconsistent MetaGGA calc.

 Electronic Relaxation 1
   ENCUT  =  700.0 eV  51.45 Ry    7.17 a.u.  21.66 21.66 21.66*2*pi/ulx,y,z
   ENINI  =  700.0     initial cutoff
   ENAUG  =  644.9 eV  augmentation charge cutoff
   NELM   =     60;   NELMIN=  2; NELMDL= -5     # of ELM steps 
   EDIFF  = 0.1E-05   stopping-criterion for ELM
   LREAL  =      T    real-space projection
   NLSPLINE    = F    spline interpolate recip. space projectors
   LCOMPAT=      F    compatible to vasp.4.4
   GGA_COMPAT  = T    GGA compatible to vasp.4.4-vasp.4.6
   LMAXPAW     = -100 max onsite density
   LMAXMIX     =    2 max onsite mixed and CHGCAR
   VOSKOWN=      0    Vosko Wilk Nusair interpolation
   ROPT   =   -0.00025  -0.00025
 Ionic relaxation
   EDIFFG = 0.1E-04   stopping-criterion for IOM
   NSW    =    300    number of steps for IOM
   NBLOCK =      1;   KBLOCK =    300    inner block; outer block 
   IBRION =      2    ionic relax: 0-MD 1-quasi-New 2-CG
   NFREE  =      1    steps in history (QN), initial steepest desc. (CG)
   ISIF   =      4    stress and relaxation
   IWAVPR =     11    prediction:  0-non 1-charg 2-wave 3-comb
   ISYM   =      2    0-nonsym 1-usesym 2-fastsym
   LCORR  =      T    Harris-Foulkes like correction to forces

   POTIM  = 0.5000    time-step for ionic-motion
   TEIN   =    0.0    initial temperature
   TEBEG  =    0.0;   TEEND  =   0.0 temperature during run
   SMASS  =  -3.00    Nose mass-parameter (am)
   estimated Nose-frequenzy (Omega)   =  0.10E-29 period in steps = 0.13E+47 mass=  -0.230E-26a.u.
   SCALEE = 1.0000    scale energy and forces
   NPACO  =    256;   APACO  = 16.0  distance and # of slots for P.C.
   PSTRESS=    0.0 pullay stress

  Mass of Ions in am
   POMASS =  10.81 12.01
  Ionic Valenz
   ZVAL   =   3.00  4.00
  Atomic Wigner-Seitz radii
   RWIGS  =  -1.00 -1.00
  virtual crystal weights 
   VCA    =   1.00  1.00
   NELECT =     352.0000    total number of electrons
   NUPDOWN=      -1.0000    fix difference up-down

 DOS related values:
   EMIN   =  10.00;   EMAX   =-10.00  energy-range for DOS
   EFERMI =   0.00
   ISMEAR =    -5;   SIGMA  =   0.05  broadening in eV -4-tet -1-fermi 0-gaus

 Electronic relaxation 2 (details)
   IALGO  =     68    algorithm
   LDIAG  =      T    sub-space diagonalisation (order eigenvalues)
   LSUBROT=      F    optimize rotation matrix (better conditioning)
   TURBO    =      0    0=normal 1=particle mesh
   IRESTART =      0    0=no restart 2=restart with 2 vectors
   NREBOOT  =      0    no. of reboots
   NMIN     =      0    reboot dimension
   EREF     =   0.00    reference energy to select bands
   IMIX   =      4    mixing-type and parameters
     AMIX     =   0.40;   BMIX     =  1.00
     AMIX_MAG =   1.60;   BMIX_MAG =  1.00
     AMIN     =   0.10
     WC   =   100.;   INIMIX=   1;  MIXPRE=   1;  MAXMIX= -45

 Intra band minimization:
   WEIMIN = 0.0010     energy-eigenvalue tresh-hold
   EBREAK =  0.11E-08  absolut break condition
   DEPER  =   0.30     relativ break condition  

   TIME   =   0.40     timestep for ELM

  volume/ion in A,a.u.               =       7.08        47.76
  Fermi-wavevector in a.u.,A,eV,Ry     =   1.248965  2.360202 21.223911  1.559913
  Thomas-Fermi vector in A             =   2.383027
 
 Write flags
   LWAVE        =      F    write WAVECAR
   LDOWNSAMPLE  =      F    k-point downsampling of WAVECAR
   LCHARG       =      T    write CHGCAR
   LVTOT        =      F    write LOCPOT, total local potential
   LVHAR        =      F    write LOCPOT, Hartree potential only
   LELF         =      F    write electronic localiz. function (ELF)
   LORBIT       =      0    0 simple, 1 ext, 2 COOP (PROOUT), +10 PAW based schemes


 Dipole corrections
   LMONO  =      F    monopole corrections only (constant potential shift)
   LDIPOL =      F    correct potential (dipole corrections)
   IDIPOL =      0    1-x, 2-y, 3-z, 4-all directions 
   EPSILON=  1.0000000 bulk dielectric constant

 Exchange correlation treatment:
   GGA     =    --    GGA type
   LEXCH   =     8    internal setting for exchange type
   VOSKOWN=      0    Vosko Wilk Nusair interpolation
   LHFCALC =     F    Hartree Fock is set to
   LHFONE  =     F    Hartree Fock one center treatment
   AEXX    =    0.0000 exact exchange contribution

 Linear response parameters
   LEPSILON=     F    determine dielectric tensor
   LRPA    =     F    only Hartree local field effects (RPA)
   LNABLA  =     F    use nabla operator in PAW spheres
   LVEL    =     F    velocity operator in full k-point grid
   LINTERFAST=   F  fast interpolation
   KINTER  =     0    interpolate to denser k-point grid
   CSHIFT  =0.1000    complex shift for real part using Kramers Kronig
   OMEGAMAX=  -1.0    maximum frequency
   DEG_THRESHOLD= 0.2000000E-02 threshold for treating states as degnerate
   RTIME   =   -0.100 relaxation time in fs
  (WPLASMAI=    0.000 imaginary part of plasma frequency in eV, 0.658/RTIME)
   DFIELD  = 0.0000000 0.0000000 0.0000000 field for delta impulse in time
 
 Orbital magnetization related:
   ORBITALMAG=     F  switch on orbital magnetization
   LCHIMAG   =     F  perturbation theory with respect to B field
   DQ        =  0.001000  dq finite difference perturbation B field
   LLRAUG    =     F  two centre corrections for induced B field



--------------------------------------------------------------------------------------------------------


 conjugate gradient relaxation of ions
 charge density and potential will be updated during run
 non-spin polarized calculation
 RMM-DIIS sequential band-by-band and
  variant of blocked Davidson during initial phase
 perform sub-space diagonalisation
    before iterative eigenvector-optimisation
 modified Broyden-mixing scheme, WC =      100.0
 initial mixing is a Kerker type mixing with AMIX =  0.4000 and BMIX =      1.0000
 Hartree-type preconditioning will be used
 using additional bands            57
 real space projection scheme for non local part
 use partial core corrections
 calculate Harris-corrections to forces 
   (improved forces if not selfconsistent)
 use gradient corrections 
 use of overlap-Matrix (Vanderbilt PP)
 Fermi weights with tetrahedron method with Bloechl corrections


--------------------------------------------------------------------------------------------------------


  energy-cutoff  :      700.00
  volume of cell :      792.71
      direct lattice vectors                 reciprocal lattice vectors
     9.133282000  0.070325000  4.173685000     0.110116510 -0.033821842 -0.000801839
     2.709449000  8.722424000  4.173685000    -0.000520540  0.115192410 -0.000801849
     0.094718000  0.070325000 10.041290000    -0.045553814 -0.033821861  0.100255374

  length of vectors
    10.041983478 10.041983908 10.041982970     0.115196379  0.115196377  0.115196391


 
 k-points in units of 2pi/SCALE and weight: read from INCAR                         
   0.00000000  0.00000000  0.00000000       0.125
   0.05505826 -0.01691092 -0.00040092       0.375
   0.05479799  0.04068528 -0.00080184       0.375
   0.03202108  0.02377435  0.04932584       0.125
 
 k-points in reciprocal lattice and weights: read from INCAR                         
   0.00000000  0.00000000  0.00000000       0.125
   0.50000000  0.00000000  0.00000000       0.375
   0.50000000  0.50000000  0.00000000       0.375
   0.50000000  0.50000000  0.50000000       0.125
 
 position of ions in fractional coordinates (direct lattice) 
   0.16039500  0.40051500  0.40051500
   0.16039500  0.40051500  0.90051500
   0.16039500  0.90051500  0.40051500
   0.16039500  0.90051500  0.90051500
   0.66039500  0.40051500  0.40051500
   0.66039500  0.40051500  0.90051500
   0.66039500  0.90051500  0.40051500
   0.66039500  0.90051500  0.90051500
   0.40051500  0.40051500  0.16039500
   0.40051500  0.40051500  0.66039500
   0.40051500  0.90051500  0.16039500
   0.40051500  0.90051500  0.66039500
   0.90051500  0.40051500  0.16039500
   0.90051500  0.40051500  0.66039500
   0.90051500  0.90051500  0.16039500
   0.90051500  0.90051500  0.66039500
   0.40051500  0.16039500  0.40051500
   0.40051500  0.16039500  0.90051500
   0.40051500  0.66039500  0.40051500
   0.40051500  0.66039500  0.90051500
   0.90051500  0.16039500  0.40051500
   0.90051500  0.16039500  0.90051500
   0.90051500  0.66039500  0.40051500
   0.90051500  0.66039500  0.90051500
   0.33960500  0.09948500  0.09948500
   0.33960500  0.09948500  0.59948500
   0.33960500  0.59948500  0.09948500
   0.33960500  0.59948500  0.59948500
   0.83960500  0.09948500  0.09948500
   0.83960500  0.09948500  0.59948500
   0.83960500  0.59948500  0.09948500
   0.83960500  0.59948500  0.59948500
   0.09948500  0.09948500  0.33960500
   0.09948500  0.09948500  0.83960500
   0.09948500  0.59948500  0.33960500
   0.09948500  0.59948500  0.83960500
   0.59948500  0.09948500  0.33960500
   0.59948500  0.09948500  0.83960500
   0.59948500  0.59948500  0.33960500
   0.59948500  0.59948500  0.83960500
   0.09948500  0.33960500  0.09948500
   0.09948500  0.33960500  0.59948500
   0.09948500  0.83960500  0.09948500
   0.09948500  0.83960500  0.59948500
   0.59948500  0.33960500  0.09948500
   0.59948500  0.33960500  0.59948500
   0.59948500  0.83960500  0.09948500
   0.59948500  0.83960500  0.59948500
   0.33229300  0.00011500  0.00011500
   0.33229300  0.00011500  0.50011500
   0.33229300  0.50011500  0.00011500
   0.33229300  0.50011500  0.50011500
   0.83229300  0.00011500  0.00011500
   0.83229300  0.00011500  0.50011500
   0.83229300  0.50011500  0.00011500
   0.83229300  0.50011500  0.50011500
   0.00011500  0.00011500  0.33229300
   0.00011500  0.00011500  0.83229300
   0.00011500  0.50011500  0.33229300
   0.00011500  0.50011500  0.83229300
   0.50011500  0.00011500  0.33229300
   0.50011500  0.00011500  0.83229300
   0.50011500  0.50011500  0.33229300
   0.50011500  0.50011500  0.83229300
   0.00011500  0.33229300  0.00011500
   0.00011500  0.33229300  0.50011500
   0.00011500  0.83229300  0.00011500
   0.00011500  0.83229300  0.50011500
   0.50011500  0.33229300  0.00011500
   0.50011500  0.33229300  0.50011500
   0.50011500  0.83229300  0.00011500
   0.50011500  0.83229300  0.50011500
   0.16770700  0.99988500  0.99988500
   0.16770700  0.99988500  0.49988500
   0.16770700  0.49988500  0.99988500
   0.16770700  0.49988500  0.49988500
   0.66770700  0.99988500  0.99988500
   0.66770700  0.99988500  0.49988500
   0.66770700  0.49988500  0.99988500
   0.66770700  0.49988500  0.49988500
   0.99988500  0.99988500  0.16770700
   0.99988500  0.99988500  0.66770700
   0.99988500  0.49988500  0.16770700
   0.99988500  0.49988500  0.66770700
   0.49988500  0.99988500  0.16770700
   0.49988500  0.99988500  0.66770700
   0.49988500  0.49988500  0.16770700
   0.49988500  0.49988500  0.66770700
   0.99988500  0.16770700  0.99988500
   0.99988500  0.16770700  0.49988500
   0.99988500  0.66770700  0.99988500
   0.99988500  0.66770700  0.49988500
   0.49988500  0.16770700  0.99988500
   0.49988500  0.16770700  0.49988500
   0.49988500  0.66770700  0.99988500
   0.49988500  0.66770700  0.49988500
   0.31539700  0.31539700  0.31539700
   0.31539700  0.31539700  0.81539700
   0.31539700  0.81539700  0.31539700
   0.31539700  0.81539700  0.81539700
   0.81539700  0.31539700  0.31539700
   0.81539700  0.31539700  0.81539700
   0.81539700  0.81539700  0.31539700
   0.81539700  0.81539700  0.81539700
   0.18460300  0.18460300  0.18460300
   0.18460300  0.18460300  0.68460300
   0.18460300  0.68460300  0.18460300
   0.18460300  0.68460300  0.68460300
   0.68460300  0.18460300  0.18460300
   0.68460300  0.18460300  0.68460300
   0.68460300  0.68460300  0.18460300
   0.68460300  0.68460300  0.68460300
 
 position of ions in cartesian coordinates  (Angst):
   2.58804371  3.53290764  6.36274892
   2.63540271  3.56807014 11.38339392
   3.94276821  7.89411964  8.44959142
   3.99012721  7.92928214 13.47023642
   7.15468471  3.56807014  8.44959142
   7.20204371  3.60323264 13.47023642
   8.50940921  7.92928214 10.53643392
   8.55676821  7.96444464 15.55707892
   4.75838370  3.53290764  4.95381961
   4.80574270  3.56807014  9.97446461
   6.11310820  7.89411964  7.04066211
   6.16046720  7.92928214 12.06130711
   9.32502470  3.56807014  7.04066211
   9.37238370  3.60323264 12.06130711
  10.67974920  7.92928214  9.12750461
  10.72710820  7.96444464 14.14814961
   4.13053449  1.45536563  6.36274892
   4.17789349  1.49052813 11.38339392
   5.48525899  5.81657763  8.44959142
   5.53261799  5.85174013 13.47023642
   8.69717549  1.49052813  8.44959142
   8.74453449  1.52569063 13.47023642
  10.05189999  5.85174013 10.53643392
  10.09925899  5.88690263 15.55707892
   3.38068079  0.89862936  2.83158108
   3.42803979  0.93379186  7.85222608
   4.73540529  5.25984136  4.91842358
   4.78276429  5.29500386  9.93906858
   7.94732179  0.93379186  4.91842358
   7.99468079  0.96895436  9.93906858
   9.30204629  5.29500386  7.00526608
   9.34940529  5.33016636 12.02591108
   1.21034080  0.89862936  4.24051039
   1.25769980  0.93379186  9.26115539
   2.56506530  5.25984136  6.32735289
   2.61242430  5.29500386 11.34799789
   5.77698180  0.93379186  6.32735289
   5.82434080  0.96895436 11.34799789
   7.13170630  5.29500386  8.41419539
   7.17906530  5.33016636 13.43484039
   1.83819001  2.97617137  2.83158108
   1.88554901  3.01133387  7.85222608
   3.19291451  7.33738337  4.91842358
   3.24027351  7.37254587  9.93906858
   6.40483101  3.01133387  4.91842358
   6.45219001  3.04649637  9.93906858
   7.75955551  7.37254587  7.00526608
   7.80691451  7.40770837 12.02591108
   3.03524815  0.02437967  1.38852103
   3.08260715  0.05954217  6.40916603
   4.38997265  4.38559167  3.47536353
   4.43733165  4.42075417  8.49600853
   7.60188915  0.05954217  3.47536353
   7.64924815  0.09470467  8.49600853
   8.95661365  4.42075417  5.56220603
   9.00397265  4.45591667 10.58285103
   0.03283604  0.02437967  3.33761033
   0.08019504  0.05954217  8.35825533
   1.38756054  4.38559167  5.42445283
   1.43491954  4.42075417 10.44509783
   4.59947704  0.05954217  5.42445283
   4.64683604  0.09470467 10.44509783
   5.95420154  4.42075417  7.51129533
   6.00156054  4.45591667 12.53194033
   0.90139216  2.89841661  1.38852103
   0.94875116  2.93357911  6.40916603
   2.25611666  7.25962861  3.47536353
   2.30347566  7.29479111  8.49600853
   5.46803316  2.93357911  3.47536353
   5.51539216  2.96874161  8.49600853
   6.82275766  7.29479111  5.56220603
   6.87011666  7.32995361 10.58285103
   4.33555985  8.80353183 14.91329647
   4.28820085  8.76836933  9.89265147
   2.98083535  4.44231983 12.82645397
   2.93347635  4.40715733  7.80580897
   8.90220085  8.83869433 17.00013897
   8.85484185  8.80353183 11.97949397
   7.54747635  4.47748233 14.91329647
   7.50011735  4.44231983  9.89265147
  11.85725396  8.80353183 10.03040467
  11.90461296  8.83869433 15.05104967
  10.50252946  4.44231983  7.94356217
  10.54988846  4.47748233 12.96420717
   7.29061296  8.76836933  7.94356217
   7.33797196  8.80353183 12.96420717
   5.93588846  4.40715733  5.85671967
   5.98324746  4.44231983 10.87736467
   9.68133234  1.60344539 14.91329647
   9.63397334  1.56828289  9.89265147
  11.03605684  5.96465739 17.00013897
  10.98869784  5.92949489 11.97949397
   5.11469134  1.56828289 12.82645397
   5.06733234  1.53312039  7.80580897
   6.46941584  5.92949489 14.91329647
   6.42205684  5.89433239  9.89265147
   3.76503560  2.79538695  5.79972820
   3.81239460  2.83054945 10.82037320
   5.11976010  7.15659895  7.88657070
   5.16711910  7.19176145 12.90721570
   8.33167660  2.83054945  7.88657070
   8.37903560  2.86571195 12.90721570
   9.68640110  7.19176145  9.97341320
   9.73376010  7.22692395 14.99405820
   2.20368890  1.63615005  3.39460180
   2.25104790  1.67131255  8.41524680
   3.55841340  5.99736205  5.48144430
   3.60577240  6.03252455 10.50208930
   6.77032990  1.67131255  5.48144430
   6.81768890  1.70647505 10.50208930
   8.12505440  6.03252455  7.56828680
   8.17241340  6.06768705 12.58893180
 


--------------------------------------------------------------------------------------------------------


 k-point   1 :   0.0000 0.0000 0.0000  plane waves:   33377
 k-point   2 :   0.5000 0.0000 0.0000  plane waves:   33382
 k-point   3 :   0.5000 0.5000 0.0000  plane waves:   33304
 k-point   4 :   0.5000 0.5000 0.5000  plane waves:   33346

 maximum and minimum number of plane-waves per node :     33382    33304

 maximum number of plane-waves:     33382
 maximum index in each direction: 
   IXMAX=   21   IYMAX=   21   IZMAX=   21
   IXMIN=  -22   IYMIN=  -22   IZMIN=  -22


 serial   3D FFT for wavefunctions
 parallel 3D FFT for charge:
    minimum data exchange during FFTs selected (reduces bandwidth)


 total amount of memory used by VASP MPI-rank0  1154140. kBytes
=======================================================================

   base      :      30000. kBytes
   nonlr-proj:      53554. kBytes
   fftplans  :     200616. kBytes
   grid      :     358473. kBytes
   one-center:        344. kBytes
   wavefun   :     511153. kBytes
 
     INWAV:  cpu time    0.0002: real time    0.0003
 Broyden mixing: mesh for mixing (old mesh)
   NGX = 43   NGY = 43   NGZ = 43
  (NGX  =180   NGY  =180   NGZ  =180)
  gives a total of  79507 points

 initial charge density was supplied:
 charge density of overlapping atoms calculated
 number of electron     352.0000000 magnetization 
 keeping initial charge density in first step


--------------------------------------------------------------------------------------------------------


 Maximum index for non-local projection operator          5544
 Maximum index for augmentation-charges         13891 (set IRDMAX)


--------------------------------------------------------------------------------------------------------


 First call to EWALD:  gamma=   0.192
 Maximum number of real-space cells 3x 3x 3
 Maximum number of reciprocal cells 3x 3x 3

    FEWALD:  cpu time    0.0678: real time    0.0678


--------------------------------------- Iteration      1(   1)  ---------------------------------------


    POTLOK:  cpu time    0.1490: real time    0.1491
    SETDIJ:  cpu time    0.1200: real time    0.1199
     EDDAV:  cpu time    3.0762: real time    3.0762
 BZINTS: Fermi energy:   17.501131;  352.000000 electrons
         Band energy: 0.144939E+04;  BLOECHL correction:   -0.023183
       DOS:  cpu time    0.0040: real time    0.0040
    --------------------------------------------
      LOOP:  cpu time    3.3493: real time    3.3492

 eigenvalue-minimisations  :  1864
 total energy-change (2. order) : 0.1448091E+04  (-0.2015872E+05)
 number of electron     352.0000000 magnetization 
 augmentation part      352.0000000 magnetization 

 Free energy of the ion-electron system (eV)
  ---------------------------------------------------
  alpha Z        PSCENC =      1123.44528264
  Ewald energy   TEWEN  =    -10318.56433996
  -Hartree energ DENC   =      -986.53133446
  -exchange      EXHF   =         0.00000000
  -V(xc)+E(xc)   XCENC  =       920.59851962
  PAW double counting   =      5912.33983061    -5839.33960861
  entropy T*S    EENTRO =         0.00000000
  eigenvalues    EBANDS =      1449.38749725
  atomic energy  EATOM  =      9186.75495500
  Solvation  Ediel_sol  =         0.00000000
  ---------------------------------------------------
  free energy    TOTEN  =      1448.09080210 eV

  energy without entropy =     1448.09080210  energy(sigma->0) =     1448.09080210


--------------------------------------------------------------------------------------------------------




--------------------------------------- Iteration      1(   2)  ---------------------------------------


     EDDAV:  cpu time    3.5492: real time    3.5488
 BZINTS: Fermi energy:    4.803101;  352.000000 electrons
         Band energy:-0.715191E+03;  BLOECHL correction:   -0.104920
       DOS:  cpu time    0.0046: real time    0.0046
    --------------------------------------------
      LOOP:  cpu time    3.5538: real time    3.5533

 eigenvalue-minimisations  :  2284
 total energy-change (2. order) :-0.2164579E+04  (-0.2044659E+04)
 number of electron     352.0000000 magnetization 
 augmentation part      352.0000000 magnetization 

 Free energy of the ion-electron system (eV)
  ---------------------------------------------------
  alpha Z        PSCENC =      1123.44528264
  Ewald energy   TEWEN  =    -10318.56433996
  -Hartree energ DENC   =      -986.53133446
  -exchange      EXHF   =         0.00000000
  -V(xc)+E(xc)   XCENC  =       920.59851962
  PAW double counting   =      5912.33983061    -5839.33960861
  entropy T*S    EENTRO =         0.00000000
  eigenvalues    EBANDS =      -715.19135375
  atomic energy  EATOM  =      9186.75495500
  Solvation  Ediel_sol  =         0.00000000
  ---------------------------------------------------
  free energy    TOTEN  =      -716.48804890 eV

  energy without entropy =     -716.48804890  energy(sigma->0) =     -716.48804890


--------------------------------------------------------------------------------------------------------




--------------------------------------- Iteration      1(   3)  ---------------------------------------


     EDDAV:  cpu time    3.4645: real time    3.4644
 BZINTS: Fermi energy:    3.712772;  352.000000 electrons
         Band energy:-0.842153E+03;  BLOECHL correction:   -0.000000
       DOS:  cpu time    0.0041: real time    0.0041
    --------------------------------------------
      LOOP:  cpu time    3.4686: real time    3.4685

 eigenvalue-minimisations  :  2208
 total energy-change (2. order) :-0.1269619E+03  (-0.1232116E+03)
 number of electron     352.0000000 magnetization 
 augmentation part      352.0000000 magnetization 

 Free energy of the ion-electron system (eV)
  ---------------------------------------------------
  alpha Z        PSCENC =      1123.44528264
  Ewald energy   TEWEN  =    -10318.56433996
  -Hartree energ DENC   =      -986.53133446
  -exchange      EXHF   =         0.00000000
  -V(xc)+E(xc)   XCENC  =       920.59851962
  PAW double counting   =      5912.33983061    -5839.33960861
  entropy T*S    EENTRO =         0.00000000
  eigenvalues    EBANDS =      -842.15327577
  atomic energy  EATOM  =      9186.75495500
  Solvation  Ediel_sol  =         0.00000000
  ---------------------------------------------------
  free energy    TOTEN  =      -843.44997091 eV

  energy without entropy =     -843.44997091  energy(sigma->0) =     -843.44997091


--------------------------------------------------------------------------------------------------------




--------------------------------------- Iteration      1(   4)  ---------------------------------------


     EDDAV:  cpu time    3.4260: real time    3.4256
 BZINTS: Fermi energy:    3.693251;  352.000000 electrons
         Band energy:-0.844818E+03;  BLOECHL correction:   -0.000000
       DOS:  cpu time    0.0042: real time    0.0042
    --------------------------------------------
      LOOP:  cpu time    3.4302: real time    3.4297

 eigenvalue-minimisations  :  2176
 total energy-change (2. order) :-0.2665110E+01  (-0.2649585E+01)
 number of electron     352.0000000 magnetization 
 augmentation part      352.0000000 magnetization 

 Free energy of the ion-electron system (eV)
  ---------------------------------------------------
  alpha Z        PSCENC =      1123.44528264
  Ewald energy   TEWEN  =    -10318.56433996
  -Hartree energ DENC   =      -986.53133446
  -exchange      EXHF   =         0.00000000
  -V(xc)+E(xc)   XCENC  =       920.59851962
  PAW double counting   =      5912.33983061    -5839.33960861
  entropy T*S    EENTRO =         0.00000000
  eigenvalues    EBANDS =      -844.81838582
  atomic energy  EATOM  =      9186.75495500
  Solvation  Ediel_sol  =         0.00000000
  ---------------------------------------------------
  free energy    TOTEN  =      -846.11508097 eV

  energy without entropy =     -846.11508097  energy(sigma->0) =     -846.11508097


--------------------------------------------------------------------------------------------------------




--------------------------------------- Iteration      1(   5)  ---------------------------------------


     EDDAV:  cpu time    3.3943: real time    3.3938
 BZINTS: Fermi energy:    3.692607;  352.000000 electrons
         Band energy:-0.844879E+03;  BLOECHL correction:   -0.000000
       DOS:  cpu time    0.0041: real time    0.0041
    CHARGE:  cpu time    1.4667: real time    1.4663
    MIXING:  cpu time    0.0583: real time    0.0583
    --------------------------------------------
      LOOP:  cpu time    4.9234: real time    4.9226

 eigenvalue-minimisations  :  2152
 total energy-change (2. order) :-0.6085139E-01  (-0.6072946E-01)
 number of electron     352.0000000 magnetization 
 augmentation part        0.9389477 magnetization 

 Broyden mixing:
  rms(total) = 0.42611E+01    rms(broyden)= 0.42610E+01
  rms(prec ) = 0.58505E+01
  weight for this iteration     100.00

 Free energy of the ion-electron system (eV)
  ---------------------------------------------------
  alpha Z        PSCENC =      1123.44528264
  Ewald energy   TEWEN  =    -10318.56433996
  -Hartree energ DENC   =      -986.53133446
  -exchange      EXHF   =         0.00000000
  -V(xc)+E(xc)   XCENC  =       920.59851962
  PAW double counting   =      5912.33983061    -5839.33960861
  entropy T*S    EENTRO =         0.00000000
  eigenvalues    EBANDS =      -844.87923722
  atomic energy  EATOM  =      9186.75495500
  Solvation  Ediel_sol  =         0.00000000
  ---------------------------------------------------
  free energy    TOTEN  =      -846.17593236 eV

  energy without entropy =     -846.17593236  energy(sigma->0) =     -846.17593236


--------------------------------------------------------------------------------------------------------




--------------------------------------- Iteration      1(   6)  ---------------------------------------


    POTLOK:  cpu time    0.1295: real time    0.1295
    SETDIJ:  cpu time    0.1188: real time    0.1188
    EDDIAG:  cpu time    0.6509: real time    0.6508
  RMM-DIIS:  cpu time    2.7683: real time    2.7758
    ORTHCH:  cpu time    0.0168: real time    0.0168
 BZINTS: Fermi energy:    4.111402;  352.000000 electrons
         Band energy:-0.600005E+03;  BLOECHL correction:   -0.055109
       DOS:  cpu time    0.0050: real time    0.0050
    CHARGE:  cpu time    1.4496: real time    1.4493
    MIXING:  cpu time    0.0578: real time    0.0578
    --------------------------------------------
      LOOP:  cpu time    5.1968: real time    5.2038

 eigenvalue-minimisations  :  1864
 total energy-change (2. order) : 0.4538942E+02  (-0.4272564E+01)
 number of electron     352.0000000 magnetization 
 augmentation part        0.8271988 magnetization 

 Broyden mixing:
  rms(total) = 0.23925E+01    rms(broyden)= 0.23925E+01
  rms(prec ) = 0.30875E+01
  weight for this iteration     100.00

 eigenvalues of (default mixing * dielectric matrix)
  average eigenvalue GAMMA=   2.1138
  2.1138

 Free energy of the ion-electron system (eV)
  ---------------------------------------------------
  alpha Z        PSCENC =      1123.44528264
  Ewald energy   TEWEN  =    -10318.56433996
  -Hartree energ DENC   =     -1192.62327976
  -exchange      EXHF   =         0.00000000
  -V(xc)+E(xc)   XCENC  =       933.45103522
  PAW double counting   =     14798.30233585   -14731.54755561
  entropy T*S    EENTRO =         0.00000000
  eigenvalues    EBANDS =      -600.00494949
  atomic energy  EATOM  =      9186.75495500
  Solvation  Ediel_sol  =         0.00000000
  ---------------------------------------------------
  free energy    TOTEN  =      -800.78651611 eV

  energy without entropy =     -800.78651611  energy(sigma->0) =     -800.78651611


--------------------------------------------------------------------------------------------------------




--------------------------------------- Iteration      1(   7)  ---------------------------------------


    POTLOK:  cpu time    0.1242: real time    0.1243
    SETDIJ:  cpu time    0.1161: real time    0.1160
    EDDIAG:  cpu time    0.6477: real time    0.6475
  RMM-DIIS:  cpu time    2.7704: real time    2.7498
    ORTHCH:  cpu time    0.0169: real time    0.0169
 BZINTS: Fermi energy:    4.758665;  352.000000 electrons
         Band energy:-0.364228E+03;  BLOECHL correction:   -0.151439
       DOS:  cpu time    0.0054: real time    0.0054
    CHARGE:  cpu time    1.4518: real time    1.4513
    MIXING:  cpu time    0.0575: real time    0.0575
    --------------------------------------------
      LOOP:  cpu time    5.1900: real time    5.1688

 eigenvalue-minimisations  :  1864
 total energy-change (2. order) : 0.1283543E+02  (-0.4005675E+01)
 number of electron     352.0000001 magnetization 
 augmentation part        0.6422560 magnetization 

 Broyden mixing:
  rms(total) = 0.58093E+00    rms(broyden)= 0.58093E+00
  rms(prec ) = 0.67514E+00
  weight for this iteration     100.00

 eigenvalues of (default mixing * dielectric matrix)
  average eigenvalue GAMMA=   1.7391
  1.2338  2.2445

 Free energy of the ion-electron system (eV)
  ---------------------------------------------------
  alpha Z        PSCENC =      1123.44528264
  Ewald energy   TEWEN  =    -10318.56433996
  -Hartree energ DENC   =     -1426.83757888
  -exchange      EXHF   =         0.00000000
  -V(xc)+E(xc)   XCENC  =       950.62179282
  PAW double counting   =     31153.87612954   -31093.01908761
  entropy T*S    EENTRO =         0.00000000
  eigenvalues    EBANDS =      -364.22823508
  atomic energy  EATOM  =      9186.75495500
  Solvation  Ediel_sol  =         0.00000000
  ---------------------------------------------------
  free energy    TOTEN  =      -787.95108153 eV

  energy without entropy =     -787.95108153  energy(sigma->0) =     -787.95108153


--------------------------------------------------------------------------------------------------------




--------------------------------------- Iteration      1(   8)  ---------------------------------------


    POTLOK:  cpu time    0.1282: real time    0.1282
    SETDIJ:  cpu time    0.1158: real time    0.1158
    EDDIAG:  cpu time    0.6492: real time    0.6491
  RMM-DIIS:  cpu time    2.7672: real time    2.7432
    ORTHCH:  cpu time    0.0168: real time    0.0168
 BZINTS: Fermi energy:    4.820671;  352.000000 electrons
         Band energy:-0.345802E+03;  BLOECHL correction:   -0.141649
       DOS:  cpu time    0.0053: real time    0.0053
    CHARGE:  cpu time    1.4244: real time    1.4240
    MIXING:  cpu time    0.0587: real time    0.0586
    --------------------------------------------
      LOOP:  cpu time    5.1655: real time    5.1410

 eigenvalue-minimisations  :  1864
 total energy-change (2. order) :-0.1296479E+00  (-0.3954860E+00)
 number of electron     352.0000001 magnetization 
 augmentation part        0.5851121 magnetization 

 Broyden mixing:
  rms(total) = 0.25871E+00    rms(broyden)= 0.25871E+00
  rms(prec ) = 0.29755E+00
  weight for this iteration     100.00

 eigenvalues of (default mixing * dielectric matrix)
  average eigenvalue GAMMA=   1.8028
  2.4239  1.4418  1.5426

 Free energy of the ion-electron system (eV)
  ---------------------------------------------------
  alpha Z        PSCENC =      1123.44528264
  Ewald energy   TEWEN  =    -10318.56433996
  -Hartree energ DENC   =     -1447.46193333
  -exchange      EXHF   =         0.00000000
  -V(xc)+E(xc)   XCENC  =       953.09413338
  PAW double counting   =     36004.79507118   -35944.34189153
  entropy T*S    EENTRO =         0.00000000
  eigenvalues    EBANDS =      -345.80200685
  atomic energy  EATOM  =      9186.75495500
  Solvation  Ediel_sol  =         0.00000000
  ---------------------------------------------------
  free energy    TOTEN  =      -788.08072947 eV

  energy without entropy =     -788.08072947  energy(sigma->0) =     -788.08072947


--------------------------------------------------------------------------------------------------------




--------------------------------------- Iteration      1(   9)  ---------------------------------------


    POTLOK:  cpu time    0.1237: real time    0.1237
    SETDIJ:  cpu time    0.1221: real time    0.1221
    EDDIAG:  cpu time    0.6531: real time    0.6529
  RMM-DIIS:  cpu time    2.7662: real time    2.7425
    ORTHCH:  cpu time    0.0168: real time    0.0168
 BZINTS: Fermi energy:    4.875882;  352.000000 electrons
         Band energy:-0.342300E+03;  BLOECHL correction:   -0.192142
       DOS:  cpu time    0.0054: real time    0.0054
    CHARGE:  cpu time    1.4311: real time    1.4307
    MIXING:  cpu time    0.0605: real time    0.0605
    --------------------------------------------
      LOOP:  cpu time    5.1788: real time    5.1546

 eigenvalue-minimisations  :  1864
 total energy-change (2. order) :-0.8347989E-01  (-0.4530189E-01)
 number of electron     352.0000001 magnetization 
 augmentation part        0.5612425 magnetization 

 Broyden mixing:
  rms(total) = 0.94224E-01    rms(broyden)= 0.94223E-01
  rms(prec ) = 0.13438E+00
  weight for this iteration     100.00

 eigenvalues of (default mixing * dielectric matrix)
  average eigenvalue GAMMA=   1.7371
  2.3868  2.3868  1.0874  1.0874

 Free energy of the ion-electron system (eV)
  ---------------------------------------------------
  alpha Z        PSCENC =      1123.44528264
  Ewald energy   TEWEN  =    -10318.56433996
  -Hartree energ DENC   =     -1451.79354469
  -exchange      EXHF   =         0.00000000
  -V(xc)+E(xc)   XCENC  =       953.76083603
  PAW double counting   =     38410.43503650   -38349.90226433
  entropy T*S    EENTRO =         0.00000000
  eigenvalues    EBANDS =      -342.30017056
  atomic energy  EATOM  =      9186.75495500
  Solvation  Ediel_sol  =         0.00000000
  ---------------------------------------------------
  free energy    TOTEN  =      -788.16420937 eV

  energy without entropy =     -788.16420937  energy(sigma->0) =     -788.16420937


--------------------------------------------------------------------------------------------------------




--------------------------------------- Iteration      1(  10)  ---------------------------------------


    POTLOK:  cpu time    0.1235: real time    0.1235
    SETDIJ:  cpu time    0.1164: real time    0.1164
    EDDIAG:  cpu time    0.6492: real time    0.6491
  RMM-DIIS:  cpu time    2.7821: real time    2.7533
    ORTHCH:  cpu time    0.0168: real time    0.0168
 BZINTS: Fermi energy:    4.831777;  352.000000 electrons
         Band energy:-0.350615E+03;  BLOECHL correction:   -0.171701
       DOS:  cpu time    0.0054: real time    0.0053
    CHARGE:  cpu time    1.4598: real time    1.4538
    MIXING:  cpu time    0.0641: real time    0.0640
    --------------------------------------------
      LOOP:  cpu time    5.2173: real time    5.1823

 eigenvalue-minimisations  :  1864
 total energy-change (2. order) : 0.2541623E-01  (-0.1698123E-01)
 number of electron     352.0000001 magnetization 
 augmentation part        0.5565382 magnetization 

 Broyden mixing:
  rms(total) = 0.43044E-01    rms(broyden)= 0.43039E-01
  rms(prec ) = 0.73571E-01
  weight for this iteration     100.00

 eigenvalues of (default mixing * dielectric matrix)
  average eigenvalue GAMMA=   1.6227
  2.5936  1.7794  1.7794  0.9806  0.9806

 Free energy of the ion-electron system (eV)
  ---------------------------------------------------
  alpha Z        PSCENC =      1123.44528264
  Ewald energy   TEWEN  =    -10318.56433996
  -Hartree energ DENC   =     -1443.27388261
  -exchange      EXHF   =         0.00000000
  -V(xc)+E(xc)   XCENC  =       953.28671363
  PAW double counting   =     38533.68516172   -38472.85791719
  entropy T*S    EENTRO =         0.00000000
  eigenvalues    EBANDS =      -350.61476637
  atomic energy  EATOM  =      9186.75495500
  Solvation  Ediel_sol  =         0.00000000
  ---------------------------------------------------
  free energy    TOTEN  =      -788.13879313 eV

  energy without entropy =     -788.13879313  energy(sigma->0) =     -788.13879313


--------------------------------------------------------------------------------------------------------




--------------------------------------- Iteration      1(  11)  ---------------------------------------


    POTLOK:  cpu time    0.1243: real time    0.1244
    SETDIJ:  cpu time    0.1161: real time    0.1161
    EDDIAG:  cpu time    0.6490: real time    0.6490
  RMM-DIIS:  cpu time    2.7785: real time    2.7587
    ORTHCH:  cpu time    0.0168: real time    0.0168
 BZINTS: Fermi energy:    4.844898;  352.000000 electrons
         Band energy:-0.346574E+03;  BLOECHL correction:   -0.174377
       DOS:  cpu time    0.0054: real time    0.0054
    CHARGE:  cpu time    1.4262: real time    1.4259
    MIXING:  cpu time    0.0605: real time    0.0605
    --------------------------------------------
      LOOP:  cpu time    5.1770: real time    5.1568

 eigenvalue-minimisations  :  1867
 total energy-change (2. order) :-0.1769538E-02  (-0.3716962E-02)
 number of electron     352.0000001 magnetization 
 augmentation part        0.5498790 magnetization 

 Broyden mixing:
  rms(total) = 0.19076E-01    rms(broyden)= 0.19074E-01
  rms(prec ) = 0.25344E-01
  weight for this iteration     100.00

 eigenvalues of (default mixing * dielectric matrix)
  average eigenvalue GAMMA=   1.4957
  2.3822  2.2738  1.6432  1.0349  1.0349  0.6055

 Free energy of the ion-electron system (eV)
  ---------------------------------------------------
  alpha Z        PSCENC =      1123.44528264
  Ewald energy   TEWEN  =    -10318.56433996
  -Hartree energ DENC   =     -1447.51066963
  -exchange      EXHF   =         0.00000000
  -V(xc)+E(xc)   XCENC  =       953.53905548
  PAW double counting   =     38804.63726948   -38743.86812262
  entropy T*S    EENTRO =         0.00000000
  eigenvalues    EBANDS =      -346.57399306
  atomic energy  EATOM  =      9186.75495500
  Solvation  Ediel_sol  =         0.00000000
  ---------------------------------------------------
  free energy    TOTEN  =      -788.14056267 eV

  energy without entropy =     -788.14056267  energy(sigma->0) =     -788.14056267


--------------------------------------------------------------------------------------------------------




--------------------------------------- Iteration      1(  12)  ---------------------------------------


    POTLOK:  cpu time    0.1291: real time    0.1292
    SETDIJ:  cpu time    0.1211: real time    0.1210
    EDDIAG:  cpu time    0.6521: real time    0.6520
  RMM-DIIS:  cpu time    2.8134: real time    2.7918
    ORTHCH:  cpu time    0.0168: real time    0.0167
 BZINTS: Fermi energy:    4.842544;  352.000000 electrons
         Band energy:-0.347474E+03;  BLOECHL correction:   -0.175058
       DOS:  cpu time    0.0053: real time    0.0053
    CHARGE:  cpu time    1.4221: real time    1.4217
    MIXING:  cpu time    0.0619: real time    0.0618
    --------------------------------------------
      LOOP:  cpu time    5.2217: real time    5.1996

 eigenvalue-minimisations  :  1890
 total energy-change (2. order) :-0.3383496E-03  (-0.6555064E-03)
 number of electron     352.0000001 magnetization 
 augmentation part        0.5481526 magnetization 

 Broyden mixing:
  rms(total) = 0.12097E-01    rms(broyden)= 0.12097E-01
  rms(prec ) = 0.16259E-01
  weight for this iteration     100.00

 eigenvalues of (default mixing * dielectric matrix)
  average eigenvalue GAMMA=   1.5771
  2.4161  2.4161  1.6537  1.6537  1.0072  1.0072  0.8860

 Free energy of the ion-electron system (eV)
  ---------------------------------------------------
  alpha Z        PSCENC =      1123.44528264
  Ewald energy   TEWEN  =    -10318.56433996
  -Hartree energ DENC   =     -1446.57840047
  -exchange      EXHF   =         0.00000000
  -V(xc)+E(xc)   XCENC  =       953.47686522
  PAW double counting   =     38771.27933736   -38710.48083331
  entropy T*S    EENTRO =         0.00000000
  eigenvalues    EBANDS =      -347.47376752
  atomic energy  EATOM  =      9186.75495500
  Solvation  Ediel_sol  =         0.00000000
  ---------------------------------------------------
  free energy    TOTEN  =      -788.14090102 eV

  energy without entropy =     -788.14090102  energy(sigma->0) =     -788.14090102


--------------------------------------------------------------------------------------------------------




--------------------------------------- Iteration      1(  13)  ---------------------------------------


    POTLOK:  cpu time    0.1234: real time    0.1234
    SETDIJ:  cpu time    0.1160: real time    0.1160
    EDDIAG:  cpu time    0.6510: real time    0.6509
  RMM-DIIS:  cpu time    2.7664: real time    2.7471
    ORTHCH:  cpu time    0.0168: real time    0.0168
 BZINTS: Fermi energy:    4.841684;  352.000000 electrons
         Band energy:-0.348093E+03;  BLOECHL correction:   -0.175767
       DOS:  cpu time    0.0053: real time    0.0053
    CHARGE:  cpu time    1.4449: real time    1.4444
    MIXING:  cpu time    0.0624: real time    0.0623
    --------------------------------------------
      LOOP:  cpu time    5.1863: real time    5.1664

 eigenvalue-minimisations  :  1864
 total energy-change (2. order) : 0.1887751E-03  (-0.2726181E-03)
 number of electron     352.0000001 magnetization 
 augmentation part        0.5470114 magnetization 

 Broyden mixing:
  rms(total) = 0.41643E-02    rms(broyden)= 0.41642E-02
  rms(prec ) = 0.68061E-02
  weight for this iteration     100.00

 eigenvalues of (default mixing * dielectric matrix)
  average eigenvalue GAMMA=   1.6207
  2.8790  2.8790  2.0950  1.4556  1.0282  1.0282  0.8599  0.7406

 Free energy of the ion-electron system (eV)
  ---------------------------------------------------
  alpha Z        PSCENC =      1123.44528264
  Ewald energy   TEWEN  =    -10318.56433996
  -Hartree energ DENC   =     -1445.94763650
  -exchange      EXHF   =         0.00000000
  -V(xc)+E(xc)   XCENC  =       953.45219435
  PAW double counting   =     38752.67525081   -38691.86312748
  entropy T*S    EENTRO =         0.00000000
  eigenvalues    EBANDS =      -348.09329112
  atomic energy  EATOM  =      9186.75495500
  Solvation  Ediel_sol  =         0.00000000
  ---------------------------------------------------
  free energy    TOTEN  =      -788.14071225 eV

  energy without entropy =     -788.14071225  energy(sigma->0) =     -788.14071225


--------------------------------------------------------------------------------------------------------




--------------------------------------- Iteration      1(  14)  ---------------------------------------


    POTLOK:  cpu time    0.1231: real time    0.1232
    SETDIJ:  cpu time    0.1160: real time    0.1160
    EDDIAG:  cpu time    0.6522: real time    0.6520
  RMM-DIIS:  cpu time    2.7726: real time    2.7433
    ORTHCH:  cpu time    0.0167: real time    0.0167
 BZINTS: Fermi energy:    4.841702;  352.000000 electrons
         Band energy:-0.348035E+03;  BLOECHL correction:   -0.175704
       DOS:  cpu time    0.0053: real time    0.0053
    CHARGE:  cpu time    1.4391: real time    1.4386
    MIXING:  cpu time    0.0630: real time    0.0629
    --------------------------------------------
      LOOP:  cpu time    5.1880: real time    5.1580

 eigenvalue-minimisations  :  1865
 total energy-change (2. order) : 0.5298508E-04  (-0.3959012E-04)
 number of electron     352.0000001 magnetization 
 augmentation part        0.5466629 magnetization 

 Broyden mixing:
  rms(total) = 0.32949E-02    rms(broyden)= 0.32949E-02
  rms(prec ) = 0.52326E-02
  weight for this iteration     100.00

 eigenvalues of (default mixing * dielectric matrix)
  average eigenvalue GAMMA=   1.5487
  2.6248  2.6248  1.7017  1.7017  1.2653  1.2653  0.9815  0.9815  0.7920

 Free energy of the ion-electron system (eV)
  ---------------------------------------------------
  alpha Z        PSCENC =      1123.44528264
  Ewald energy   TEWEN  =    -10318.56433996
  -Hartree energ DENC   =     -1446.00704717
  -exchange      EXHF   =         0.00000000
  -V(xc)+E(xc)   XCENC  =       953.45111264
  PAW double counting   =     38742.35034282   -38681.53633593
  entropy T*S    EENTRO =         0.00000000
  eigenvalues    EBANDS =      -348.03462931
  atomic energy  EATOM  =      9186.75495500
  Solvation  Ediel_sol  =         0.00000000
  ---------------------------------------------------
  free energy    TOTEN  =      -788.14065926 eV

  energy without entropy =     -788.14065926  energy(sigma->0) =     -788.14065926


--------------------------------------------------------------------------------------------------------




--------------------------------------- Iteration      1(  15)  ---------------------------------------


    POTLOK:  cpu time    0.1227: real time    0.1227
    SETDIJ:  cpu time    0.1217: real time    0.1217
    EDDIAG:  cpu time    0.6504: real time    0.6503
  RMM-DIIS:  cpu time    2.7604: real time    2.7408
    ORTHCH:  cpu time    0.0168: real time    0.0168
 BZINTS: Fermi energy:    4.841641;  352.000000 electrons
         Band energy:-0.347950E+03;  BLOECHL correction:   -0.175513
       DOS:  cpu time    0.0052: real time    0.0052
    CHARGE:  cpu time    1.4299: real time    1.4295
    MIXING:  cpu time    0.0656: real time    0.0656
    --------------------------------------------
      LOOP:  cpu time    5.1727: real time    5.1526

 eigenvalue-minimisations  :  1864
 total energy-change (2. order) : 0.1802239E-05  (-0.2510070E-04)
 number of electron     352.0000001 magnetization 
 augmentation part        0.5465731 magnetization 

 Broyden mixing:
  rms(total) = 0.13426E-02    rms(broyden)= 0.13425E-02
  rms(prec ) = 0.14997E-02
  weight for this iteration     100.00

 eigenvalues of (default mixing * dielectric matrix)
  average eigenvalue GAMMA=   1.6121
  2.9918  2.7179  2.3961  1.7811  1.2732  1.2732  1.0616  0.9226  0.9226  0.7809

 Free energy of the ion-electron system (eV)
  ---------------------------------------------------
  alpha Z        PSCENC =      1123.44528264
  Ewald energy   TEWEN  =    -10318.56433996
  -Hartree energ DENC   =     -1446.09377298
  -exchange      EXHF   =         0.00000000
  -V(xc)+E(xc)   XCENC  =       953.45368184
  PAW double counting   =     38756.66334917   -38695.84971874
  entropy T*S    EENTRO =         0.00000000
  eigenvalues    EBANDS =      -347.95009444
  atomic energy  EATOM  =      9186.75495500
  Solvation  Ediel_sol  =         0.00000000
  ---------------------------------------------------
  free energy    TOTEN  =      -788.14065746 eV

  energy without entropy =     -788.14065746  energy(sigma->0) =     -788.14065746


--------------------------------------------------------------------------------------------------------




--------------------------------------- Iteration      1(  16)  ---------------------------------------


    POTLOK:  cpu time    0.1239: real time    0.1253
    SETDIJ:  cpu time    0.1161: real time    0.1161
    EDDIAG:  cpu time    0.6531: real time    0.6529
  RMM-DIIS:  cpu time    2.8083: real time    2.7745
    ORTHCH:  cpu time    0.0168: real time    0.0168
 BZINTS: Fermi energy:    4.841745;  352.000000 electrons
         Band energy:-0.347930E+03;  BLOECHL correction:   -0.175547
       DOS:  cpu time    0.0053: real time    0.0053
    CHARGE:  cpu time    1.4437: real time    1.4432
    MIXING:  cpu time    0.0649: real time    0.0649
    --------------------------------------------
      LOOP:  cpu time    5.2322: real time    5.1990

 eigenvalue-minimisations  :  1883
 total energy-change (2. order) :-0.3972388E-04  (-0.4459606E-05)
 number of electron     352.0000001 magnetization 
 augmentation part        0.5465457 magnetization 

 Broyden mixing:
  rms(total) = 0.60153E-03    rms(broyden)= 0.60152E-03
  rms(prec ) = 0.92257E-03
  weight for this iteration     100.00

 eigenvalues of (default mixing * dielectric matrix)
  average eigenvalue GAMMA=   1.5281
  2.7132  2.5591  2.5591  1.6297  1.4578  1.0742  1.0742  1.0415  1.0415  0.8915
  0.7676

 Free energy of the ion-electron system (eV)
  ---------------------------------------------------
  alpha Z        PSCENC =      1123.44528264
  Ewald energy   TEWEN  =    -10318.56433996
  -Hartree energ DENC   =     -1446.11289556
  -exchange      EXHF   =         0.00000000
  -V(xc)+E(xc)   XCENC  =       953.45405581
  PAW double counting   =     38751.61384884   -38690.80168105
  entropy T*S    EENTRO =         0.00000000
  eigenvalues    EBANDS =      -347.92992290
  atomic energy  EATOM  =      9186.75495500
  Solvation  Ediel_sol  =         0.00000000
  ---------------------------------------------------
  free energy    TOTEN  =      -788.14069718 eV

  energy without entropy =     -788.14069718  energy(sigma->0) =     -788.14069718


--------------------------------------------------------------------------------------------------------




--------------------------------------- Iteration      1(  17)  ---------------------------------------


    POTLOK:  cpu time    0.1231: real time    0.1231
    SETDIJ:  cpu time    0.1181: real time    0.1181
    EDDIAG:  cpu time    0.6508: real time    0.6507
  RMM-DIIS:  cpu time    2.3364: real time    2.3166
    ORTHCH:  cpu time    0.0168: real time    0.0168
 BZINTS: Fermi energy:    4.841784;  352.000000 electrons
         Band energy:-0.347922E+03;  BLOECHL correction:   -0.175550
       DOS:  cpu time    0.0054: real time    0.0054
    CHARGE:  cpu time    1.4357: real time    1.4352
    MIXING:  cpu time    0.0692: real time    0.0691
    --------------------------------------------
      LOOP:  cpu time    4.7554: real time    4.7348

 eigenvalue-minimisations  :  1539
 total energy-change (2. order) : 0.8491678E-05  (-0.7357001E-06)
 number of electron     352.0000001 magnetization 
 augmentation part        0.5465329 magnetization 

 Broyden mixing:
  rms(total) = 0.48873E-03    rms(broyden)= 0.48873E-03
  rms(prec ) = 0.73385E-03
  weight for this iteration     100.00

 eigenvalues of (default mixing * dielectric matrix)
  average eigenvalue GAMMA=   1.5252
  2.6270  2.6270  2.5390  1.7839  1.7839  1.2475  1.2475  1.0208  1.0208  0.8916
  0.7566  0.7566

 Free energy of the ion-electron system (eV)
  ---------------------------------------------------
  alpha Z        PSCENC =      1123.44528264
  Ewald energy   TEWEN  =    -10318.56433996
  -Hartree energ DENC   =     -1446.12144549
  -exchange      EXHF   =         0.00000000
  -V(xc)+E(xc)   XCENC  =       953.45517011
  PAW double counting   =     38752.71677785   -38691.90480203
  entropy T*S    EENTRO =         0.00000000
  eigenvalues    EBANDS =      -347.92228681
  atomic energy  EATOM  =      9186.75495500
  Solvation  Ediel_sol  =         0.00000000
  ---------------------------------------------------
  free energy    TOTEN  =      -788.14068869 eV

  energy without entropy =     -788.14068869  energy(sigma->0) =     -788.14068869


--------------------------------------------------------------------------------------------------------




--------------------------------------- Iteration      1(  18)  ---------------------------------------


    POTLOK:  cpu time    0.1244: real time    0.1244
    SETDIJ:  cpu time    0.1233: real time    0.1232
    EDDIAG:  cpu time    0.6504: real time    0.6503
  RMM-DIIS:  cpu time    1.8877: real time    1.8748
    ORTHCH:  cpu time    0.0168: real time    0.0168
 BZINTS: Fermi energy:    4.841785;  352.000000 electrons
         Band energy:-0.347928E+03;  BLOECHL correction:   -0.175559
       DOS:  cpu time    0.0053: real time    0.0053
    CHARGE:  cpu time    1.4474: real time    1.4469
    MIXING:  cpu time    0.0678: real time    0.0678
    --------------------------------------------
      LOOP:  cpu time    4.3231: real time    4.3096

[...]
   0.869E+01 0.646E+01 0.455E+02   -.876E+01 -.650E+01 -.508E+02   0.628E-01 0.466E-01 0.529E+01   -.127E-04 -.943E-05 -.527E-04
   0.869E+01 0.646E+01 0.455E+02   -.876E+01 -.650E+01 -.508E+02   0.628E-01 0.466E-01 0.529E+01   -.127E-04 -.943E-05 -.527E-04
   0.172E+02 0.345E+02 0.264E+02   -.186E+02 -.391E+02 -.287E+02   0.144E+01 0.459E+01 0.221E+01   -.215E-04 -.384E-04 -.331E-04
   0.172E+02 0.345E+02 0.264E+02   -.186E+02 -.391E+02 -.287E+02   0.144E+01 0.459E+01 0.221E+01   -.215E-04 -.384E-04 -.331E-04
   0.172E+02 0.345E+02 0.264E+02   -.186E+02 -.391E+02 -.287E+02   0.144E+01 0.459E+01 0.221E+01   -.215E-04 -.384E-04 -.331E-04
   0.172E+02 0.345E+02 0.264E+02   -.186E+02 -.391E+02 -.287E+02   0.144E+01 0.459E+01 0.221E+01   -.215E-04 -.384E-04 -.331E-04
   0.172E+02 0.345E+02 0.264E+02   -.186E+02 -.391E+02 -.287E+02   0.144E+01 0.459E+01 0.221E+01   -.215E-04 -.384E-04 -.331E-04
   0.172E+02 0.345E+02 0.264E+02   -.186E+02 -.391E+02 -.287E+02   0.144E+01 0.459E+01 0.221E+01   -.215E-04 -.384E-04 -.331E-04
   0.172E+02 0.345E+02 0.264E+02   -.186E+02 -.391E+02 -.287E+02   0.144E+01 0.459E+01 0.221E+01   -.215E-04 -.384E-04 -.331E-04
   0.172E+02 0.345E+02 0.264E+02   -.186E+02 -.391E+02 -.287E+02   0.144E+01 0.459E+01 0.221E+01   -.215E-04 -.384E-04 -.331E-04
   -.380E+02 -.646E+01 -.264E+02   0.428E+02 0.650E+01 0.287E+02   -.481E+01 -.466E-01 -.221E+01   0.430E-04 0.943E-05 0.331E-04
   -.380E+02 -.646E+01 -.264E+02   0.428E+02 0.650E+01 0.287E+02   -.481E+01 -.466E-01 -.221E+01   0.430E-04 0.943E-05 0.331E-04
   -.380E+02 -.646E+01 -.264E+02   0.428E+02 0.650E+01 0.287E+02   -.481E+01 -.466E-01 -.221E+01   0.430E-04 0.943E-05 0.331E-04
   -.380E+02 -.646E+01 -.264E+02   0.428E+02 0.650E+01 0.287E+02   -.481E+01 -.466E-01 -.221E+01   0.430E-04 0.943E-05 0.331E-04
   -.380E+02 -.646E+01 -.264E+02   0.428E+02 0.650E+01 0.287E+02   -.481E+01 -.466E-01 -.221E+01   0.430E-04 0.943E-05 0.331E-04
   -.380E+02 -.646E+01 -.264E+02   0.428E+02 0.650E+01 0.287E+02   -.481E+01 -.466E-01 -.221E+01   0.430E-04 0.943E-05 0.331E-04
   -.380E+02 -.646E+01 -.264E+02   0.428E+02 0.650E+01 0.287E+02   -.481E+01 -.466E-01 -.221E+01   0.430E-04 0.943E-05 0.331E-04
   -.380E+02 -.646E+01 -.264E+02   0.428E+02 0.650E+01 0.287E+02   -.481E+01 -.466E-01 -.221E+01   0.430E-04 0.943E-05 0.331E-04
   -.869E+01 -.646E+01 -.455E+02   0.876E+01 0.650E+01 0.508E+02   -.628E-01 -.466E-01 -.529E+01   0.127E-04 0.943E-05 0.527E-04
   -.869E+01 -.646E+01 -.455E+02   0.876E+01 0.650E+01 0.508E+02   -.628E-01 -.466E-01 -.529E+01   0.127E-04 0.943E-05 0.527E-04
   -.869E+01 -.646E+01 -.455E+02   0.876E+01 0.650E+01 0.508E+02   -.628E-01 -.466E-01 -.529E+01   0.127E-04 0.943E-05 0.527E-04
   -.869E+01 -.646E+01 -.455E+02   0.876E+01 0.650E+01 0.508E+02   -.628E-01 -.466E-01 -.529E+01   0.127E-04 0.943E-05 0.527E-04
   -.869E+01 -.646E+01 -.455E+02   0.876E+01 0.650E+01 0.508E+02   -.628E-01 -.466E-01 -.529E+01   0.127E-04 0.943E-05 0.527E-04
   -.869E+01 -.646E+01 -.455E+02   0.876E+01 0.650E+01 0.508E+02   -.628E-01 -.466E-01 -.529E+01   0.127E-04 0.943E-05 0.527E-04
   -.869E+01 -.646E+01 -.455E+02   0.876E+01 0.650E+01 0.508E+02   -.628E-01 -.466E-01 -.529E+01   0.127E-04 0.943E-05 0.527E-04
   -.869E+01 -.646E+01 -.455E+02   0.876E+01 0.650E+01 0.508E+02   -.628E-01 -.466E-01 -.529E+01   0.127E-04 0.943E-05 0.527E-04
   -.172E+02 -.345E+02 -.264E+02   0.186E+02 0.391E+02 0.287E+02   -.144E+01 -.459E+01 -.221E+01   0.215E-04 0.384E-04 0.331E-04
   -.172E+02 -.345E+02 -.264E+02   0.186E+02 0.391E+02 0.287E+02   -.144E+01 -.459E+01 -.221E+01   0.215E-04 0.384E-04 0.331E-04
   -.172E+02 -.345E+02 -.264E+02   0.186E+02 0.391E+02 0.287E+02   -.144E+01 -.459E+01 -.221E+01   0.215E-04 0.384E-04 0.331E-04
   -.172E+02 -.345E+02 -.264E+02   0.186E+02 0.391E+02 0.287E+02   -.144E+01 -.459E+01 -.221E+01   0.215E-04 0.384E-04 0.331E-04
   -.172E+02 -.345E+02 -.264E+02   0.186E+02 0.391E+02 0.287E+02   -.144E+01 -.459E+01 -.221E+01   0.215E-04 0.384E-04 0.331E-04
   -.172E+02 -.345E+02 -.264E+02   0.186E+02 0.391E+02 0.287E+02   -.144E+01 -.459E+01 -.221E+01   0.215E-04 0.384E-04 0.331E-04
   -.172E+02 -.345E+02 -.264E+02   0.186E+02 0.391E+02 0.287E+02   -.144E+01 -.459E+01 -.221E+01   0.215E-04 0.384E-04 0.331E-04
   -.172E+02 -.345E+02 -.264E+02   0.186E+02 0.391E+02 0.287E+02   -.144E+01 -.459E+01 -.221E+01   0.215E-04 0.384E-04 0.331E-04
   0.165E+02 0.122E+02 0.254E+02   -.167E+02 -.124E+02 -.257E+02   0.229E+00 0.170E+00 0.353E+00   -.155E-04 -.115E-04 -.239E-04
   0.165E+02 0.122E+02 0.254E+02   -.167E+02 -.124E+02 -.257E+02   0.229E+00 0.170E+00 0.353E+00   -.155E-04 -.115E-04 -.239E-04
   0.165E+02 0.122E+02 0.254E+02   -.167E+02 -.124E+02 -.257E+02   0.229E+00 0.170E+00 0.353E+00   -.155E-04 -.115E-04 -.239E-04
   0.165E+02 0.122E+02 0.254E+02   -.167E+02 -.124E+02 -.257E+02   0.229E+00 0.170E+00 0.353E+00   -.155E-04 -.115E-04 -.239E-04
   0.165E+02 0.122E+02 0.254E+02   -.167E+02 -.124E+02 -.257E+02   0.229E+00 0.170E+00 0.353E+00   -.155E-04 -.115E-04 -.239E-04
   0.165E+02 0.122E+02 0.254E+02   -.167E+02 -.124E+02 -.257E+02   0.229E+00 0.170E+00 0.353E+00   -.155E-04 -.115E-04 -.239E-04
   0.165E+02 0.122E+02 0.254E+02   -.167E+02 -.124E+02 -.257E+02   0.229E+00 0.170E+00 0.353E+00   -.155E-04 -.115E-04 -.239E-04
   0.165E+02 0.122E+02 0.254E+02   -.167E+02 -.124E+02 -.257E+02   0.229E+00 0.170E+00 0.353E+00   -.155E-04 -.115E-04 -.239E-04
   -.165E+02 -.122E+02 -.254E+02   0.167E+02 0.124E+02 0.257E+02   -.229E+00 -.170E+00 -.353E+00   0.155E-04 0.115E-04 0.239E-04
   -.165E+02 -.122E+02 -.254E+02   0.167E+02 0.124E+02 0.257E+02   -.229E+00 -.170E+00 -.353E+00   0.155E-04 0.115E-04 0.239E-04
   -.165E+02 -.122E+02 -.254E+02   0.167E+02 0.124E+02 0.257E+02   -.229E+00 -.170E+00 -.353E+00   0.155E-04 0.115E-04 0.239E-04
   -.165E+02 -.122E+02 -.254E+02   0.167E+02 0.124E+02 0.257E+02   -.229E+00 -.170E+00 -.353E+00   0.155E-04 0.115E-04 0.239E-04
   -.165E+02 -.122E+02 -.254E+02   0.167E+02 0.124E+02 0.257E+02   -.229E+00 -.170E+00 -.353E+00   0.155E-04 0.115E-04 0.239E-04
   -.165E+02 -.122E+02 -.254E+02   0.167E+02 0.124E+02 0.257E+02   -.229E+00 -.170E+00 -.353E+00   0.155E-04 0.115E-04 0.239E-04
   -.165E+02 -.122E+02 -.254E+02   0.167E+02 0.124E+02 0.257E+02   -.229E+00 -.170E+00 -.353E+00   0.155E-04 0.115E-04 0.239E-04
   -.165E+02 -.122E+02 -.254E+02   0.167E+02 0.124E+02 0.257E+02   -.229E+00 -.170E+00 -.353E+00   0.155E-04 0.115E-04 0.239E-04
 -----------------------------------------------------------------------------------------------
   -.983E-11 -.660E-11 0.603E-10   0.135E-12 -.210E-12 -.842E-12   0.470E-13 -.180E-13 0.687E-13   0.270E-11 0.238E-11 0.277E-12
 
 
 POSITION                                       TOTAL-FORCE (eV/Angst)
 -----------------------------------------------------------------------------------
      2.53523      3.49974      6.29030         0.000070      0.000007      0.000042
      2.55278      3.51277     11.29006         0.000070      0.000007      0.000042
      3.86676      7.86071      8.34142         0.000070      0.000007      0.000042
      3.88431      7.87374     13.34118         0.000070      0.000007      0.000042
      7.09493      3.51277      8.34142         0.000070      0.000007      0.000042
      7.11248      3.52580     13.34118         0.000070      0.000007      0.000042
      8.42646      7.87374     10.39253         0.000070      0.000007      0.000042
      8.44401      7.88677     15.39229         0.000070      0.000007      0.000042
      4.71371      3.49974      4.87609         0.000010      0.000007      0.000081
      4.73126      3.51277      9.87585         0.000010      0.000007      0.000081
      6.04524      7.86071      6.92720         0.000010      0.000007      0.000081
      6.06279      7.87374     11.92696         0.000010      0.000007      0.000081
      9.27341      3.51277      6.92720         0.000010      0.000007      0.000081
      9.29095      3.52580     11.92696         0.000010      0.000007      0.000081
     10.60494      7.87374      8.97832         0.000010      0.000007      0.000081
     10.62248      7.88677     13.97808         0.000010      0.000007      0.000081
      4.08350      1.41441      6.29030         0.000027      0.000065      0.000042
      4.10105      1.42744     11.29006         0.000027      0.000065      0.000042
      5.41503      5.77538      8.34142         0.000027      0.000065      0.000042
      5.43258      5.78841     13.34118         0.000027      0.000065      0.000042
      8.64320      1.42744      8.34142         0.000027      0.000065      0.000042
      8.66075      1.44047     13.34118         0.000027      0.000065      0.000042
      9.97473      5.78840     10.39253         0.000027      0.000065      0.000042
      9.99228      5.80143     15.39229         0.000027      0.000065      0.000042
      3.37355      0.88729      2.81168        -0.000070     -0.000007     -0.000042
      3.39109      0.90032      7.81144        -0.000070     -0.000007     -0.000042
      4.70507      5.24826      4.86279        -0.000070     -0.000007     -0.000042
      4.72262      5.26129      9.86255        -0.000070     -0.000007     -0.000042
      7.93324      0.90032      4.86279        -0.000070     -0.000007     -0.000042
      7.95079      0.91335      9.86255        -0.000070     -0.000007     -0.000042
      9.26477      5.26129      6.91391        -0.000070     -0.000007     -0.000042
      9.28232      5.27432     11.91366        -0.000070     -0.000007     -0.000042
      1.19507      0.88729      4.22589        -0.000010     -0.000007     -0.000081
      1.21262      0.90032      9.22565        -0.000010     -0.000007     -0.000081
      2.52660      5.24826      6.27700        -0.000010     -0.000007     -0.000081
      2.54415      5.26129     11.27676        -0.000010     -0.000007     -0.000081
      5.75477      0.90032      6.27700        -0.000010     -0.000007     -0.000081
      5.77231      0.91335     11.27676        -0.000010     -0.000007     -0.000081
      7.08630      5.26129      8.32812        -0.000010     -0.000007     -0.000081
      7.10384      5.27432     13.32788        -0.000010     -0.000007     -0.000081
      1.82527      2.97262      2.81168        -0.000027     -0.000065     -0.000042
      1.84282      2.98565      7.81144        -0.000027     -0.000065     -0.000042
      3.15680      7.33359      4.86279        -0.000027     -0.000065     -0.000042
      3.17435      7.34662      9.86255        -0.000027     -0.000065     -0.000042
      6.38497      2.98565      4.86279        -0.000027     -0.000065     -0.000042
      6.40252      2.99868      9.86255        -0.000027     -0.000065     -0.000042
      7.71650      7.34662      6.91391        -0.000027     -0.000065     -0.000042
      7.73405      7.35965     11.91366        -0.000027     -0.000065     -0.000042
      3.03277      0.00350      1.35663        -0.000052      0.000011     -0.000007
      3.05031      0.01653      6.35639        -0.000052      0.000011     -0.000007
      4.36429      4.36447      3.40775        -0.000052      0.000011     -0.000007
      4.38184      4.37750      8.40750        -0.000052      0.000011     -0.000007
      7.59246      0.01653      3.40775        -0.000052      0.000011     -0.000007
      7.61001      0.02956      8.40750        -0.000052      0.000011     -0.000007
      8.92399      4.37750      5.45886        -0.000052      0.000011     -0.000007
      8.94154      4.39053     10.45862        -0.000052      0.000011     -0.000007
      0.00472      0.00350      3.32236         0.000015      0.000011     -0.000050
      0.02227      0.01653      8.32212         0.000015      0.000011     -0.000050
      1.33625      4.36447      5.37348         0.000015      0.000011     -0.000050
      1.35380      4.37750     10.37323         0.000015      0.000011     -0.000050
      4.56442      0.01653      5.37348         0.000015      0.000011     -0.000050
      4.58197      0.02956     10.37323         0.000015      0.000011     -0.000050
      5.89595      4.37750      7.42459         0.000015      0.000011     -0.000050
      5.91350      4.39053     12.42435         0.000015      0.000011     -0.000050
      0.88069      2.90208      1.35663        -0.000005     -0.000053     -0.000007
      0.89824      2.91511      6.35639        -0.000005     -0.000053     -0.000007
      2.21222      7.26305      3.40775        -0.000005     -0.000053     -0.000007
      2.22977      7.27608      8.40750        -0.000005     -0.000053     -0.000007
      5.44039      2.91511      3.40775        -0.000005     -0.000053     -0.000007
      5.45794      2.92814      8.40750        -0.000005     -0.000053     -0.000007
      6.77192      7.27608      5.45886        -0.000005     -0.000053     -0.000007
      6.78947      7.28911     10.45862        -0.000005     -0.000053     -0.000007
      1.52693      0.00953      0.69448         0.000052     -0.000011      0.000007
      1.54448      0.02255      5.69424         0.000052     -0.000011      0.000007
      2.85846      4.37049      2.74559         0.000052     -0.000011      0.000007
      2.87601      4.38352      7.74535         0.000052     -0.000011      0.000007
      6.08663      0.02255      2.74559         0.000052     -0.000011      0.000007
      6.10418      0.03558      7.74535         0.000052     -0.000011      0.000007
      7.41816      4.38352      4.79670         0.000052     -0.000011      0.000007
      7.43571      4.39655      9.79646         0.000052     -0.000011      0.000007
      0.01283      0.00953      1.67740        -0.000015     -0.000011      0.000050
      0.03038      0.02255      6.67716        -0.000015     -0.000011      0.000050
      1.34436      4.37049      3.72851        -0.000015     -0.000011      0.000050
      1.36191      4.38352      8.72827        -0.000015     -0.000011      0.000050
      4.57253      0.02255      3.72851        -0.000015     -0.000011      0.000050
      4.59008      0.03558      8.72827        -0.000015     -0.000011      0.000050
      5.90406      4.38352      5.77962        -0.000015     -0.000011      0.000050
      5.92160      4.39655     10.77938        -0.000015     -0.000011      0.000050
      0.45084      1.45889      0.69448         0.000005      0.000053      0.000007
      0.46839      1.47192      5.69424         0.000005      0.000053      0.000007
      1.78237      5.81986      2.74559         0.000005      0.000053      0.000007
      1.79992      5.83289      7.74535         0.000005      0.000053      0.000007
      5.01054      1.47192      2.74559         0.000005      0.000053      0.000007
      5.02808      1.48495      7.74535         0.000005      0.000053      0.000007
      6.34207      5.83289      4.79670         0.000005      0.000053      0.000007
      6.35961      5.84592      9.79646         0.000005      0.000053      0.000007
      3.70144      2.74817      5.70176         0.000266      0.000198      0.000410
      3.71899      2.76120     10.70152         0.000266      0.000198      0.000410
      5.03297      7.10914      7.75288         0.000266      0.000198      0.000410
      5.05052      7.12217     12.75264         0.000266      0.000198      0.000410
      8.26114      2.76120      7.75288         0.000266      0.000198      0.000410
      8.27869      2.77423     12.75264         0.000266      0.000198      0.000410
      9.59267      7.12217      9.80399         0.000266      0.000198      0.000410
      9.61022      7.13520     14.80375         0.000266      0.000198      0.000410
      2.20734      1.63886      3.40022        -0.000266     -0.000198     -0.000410
      2.22488      1.65189      8.39998        -0.000266     -0.000198     -0.000410
      3.53887      5.99983      5.45133        -0.000266     -0.000198     -0.000410
      3.55641      6.01286     10.45109        -0.000266     -0.000198     -0.000410
      6.76703      1.65189      5.45133        -0.000266     -0.000198     -0.000410
      6.78458      1.66492     10.45109        -0.000266     -0.000198     -0.000410
      8.09856      6.01286      7.50244        -0.000266     -0.000198     -0.000410
      8.11611      6.02589     12.50220        -0.000266     -0.000198     -0.000410
 -----------------------------------------------------------------------------------
    total drift:                               -0.000000     -0.000000      0.000000


--------------------------------------------------------------------------------------------------------



  FREE ENERGIE OF THE ION-ELECTRON SYSTEM (eV)
  ---------------------------------------------------
  free  energy   TOTEN  =      -788.62967929 eV

  energy  without entropy=     -788.62967929  energy(sigma->0) =     -788.62967929
 
 d Force = 0.2403713E-05[-0.517E-07, 0.486E-05]  d Energy = 0.2966718E-04-0.273E-04
 d Force = 0.1076945E+00[ 0.108E+00, 0.108E+00]  d Ewald  = 0.1023648E+00 0.533E-02


--------------------------------------------------------------------------------------------------------


    POTLOK:  cpu time    0.2904: real time    0.2903


--------------------------------------------------------------------------------------------------------




--------------------------------------------------------------------------------------------------------


  
 reached required accuracy - stopping structural energy minimisation
     LOOP+:  cpu time   24.5333: real time   24.5189
 -----------------------------------------------------------------------------
|                                                                             |
|           W    W    AA    RRRRR   N    N  II  N    N   GGGG   !!!           |
|           W    W   A  A   R    R  NN   N  II  NN   N  G    G  !!!           |
|           W    W  A    A  R    R  N N  N  II  N N  N  G       !!!           |
|           W WW W  AAAAAA  RRRRR   N  N N  II  N  N N  G  GGG   !            |
|           WW  WW  A    A  R   R   N   NN  II  N   NN  G    G                |
|           W    W  A    A  R    R  N    N  II  N    N   GGGG   !!!           |
|                                                                             |
|     Tetrahedron method does not include variations of the Fermi             |
|     occupations, so forces and stress will be inaccurate. We suggest        |
|     using a different smearing scheme ISMEAR = 1 or 2 for metals in         |
|     relaxations.                                                            |
|                                                                             |
 -----------------------------------------------------------------------------

    4ORBIT:  cpu time    0.0000: real time    0.0000
 BZINTS: Fermi energy:    4.931392;  352.000000 electrons
         Band energy:-0.335690E+03;  BLOECHL correction:   -0.292409

 total amount of memory used by VASP MPI-rank0  1154140. kBytes
=======================================================================

   base      :      30000. kBytes
   nonlr-proj:      53554. kBytes
   fftplans  :     200616. kBytes
   grid      :     358473. kBytes
   one-center:        344. kBytes
   wavefun   :     511153. kBytes
 
  
  
 General timing and accounting informations for this job:
 ========================================================
  
                  Total CPU time used (sec):      913.729
                            User time (sec):      765.170
                          System time (sec):      148.560
                         Elapsed time (sec):      914.997
  
                   Maximum memory used (kb):     3186852.
                   Average memory used (kb):          N/A
  
                          Minor page faults:     15032807
                          Major page faults:           26
                 Voluntary context switches:       153286
