[1649282251.420109] [c0909a-s23:155293:0]    ucp_context.c:1075 UCX  ERROR exceeded transports/devices limit (78 requested, up to 64 are supported)
 running on    1 total cores
 distrk:  each k-point on    1 cores,    1 groups
 distr:  one band on    1 cores,    1 groups
 OpenACC runtime initialized ...    1 GPUs detected
 vasp.6.2.0 18Jan21 (build Feb 25 2021 07:51:20) complex                         
 POSCAR found type information on POSCAR B C 
 POSCAR found :  2 types and     112 ions
 scaLAPACK will be used selectively (only on CPU)
 LDA part: xc-table for Pade appr. of Perdew
 -----------------------------------------------------------------------------
|                                                                             |
|           W    W    AA    RRRRR   N    N  II  N    N   GGGG   !!!           |
|           W    W   A  A   R    R  NN   N  II  NN   N  G    G  !!!           |
|           W    W  A    A  R    R  N N  N  II  N N  N  G       !!!           |
|           W WW W  AAAAAA  RRRRR   N  N N  II  N  N N  G  GGG   !            |
|           WW  WW  A    A  R   R   N   NN  II  N   NN  G    G                |
|           W    W  A    A  R    R  N    N  II  N    N   GGGG   !!!           |
|                                                                             |
|     The requested file  could not be found or opened for reading            |
|     k-point information. Automatic k-point generation is used as a          |
|     fallback, which may lead to unwanted results.                           |
|                                                                             |
 -----------------------------------------------------------------------------

 POSCAR, INCAR and KPOINTS ok, starting setup
 FFT: planning ...
 WAVECAR not read
 entering main loop
       N       E                     dE             d eps       ncg     rms          rms(c)
DAV:   1     0.144809080210E+04    0.14481E+04   -0.20159E+05  1864   0.178E+03
DAV:   2    -0.716488048898E+03   -0.21646E+04   -0.20447E+04  2284   0.320E+02
DAV:   3    -0.843449970915E+03   -0.12696E+03   -0.12321E+03  2208   0.682E+01
DAV:   4    -0.846115080971E+03   -0.26651E+01   -0.26496E+01  2176   0.103E+01
DAV:   5    -0.846175932365E+03   -0.60851E-01   -0.60729E-01  2152   0.150E+00    0.426E+01
RMM:   6    -0.800786516107E+03    0.45389E+02   -0.42726E+01  1864   0.984E+00    0.239E+01
RMM:   7    -0.787951081525E+03    0.12835E+02   -0.40057E+01  1864   0.991E+00    0.581E+00
RMM:   8    -0.788080729471E+03   -0.12965E+00   -0.39549E+00  1864   0.397E+00    0.259E+00
RMM:   9    -0.788164209365E+03   -0.83480E-01   -0.45302E-01  1864   0.135E+00    0.942E-01
RMM:  10    -0.788138793133E+03    0.25416E-01   -0.16981E-01  1864   0.690E-01    0.430E-01
RMM:  11    -0.788140562671E+03   -0.17695E-02   -0.37170E-02  1867   0.333E-01    0.191E-01
RMM:  12    -0.788140901020E+03   -0.33835E-03   -0.65551E-03  1890   0.134E-01    0.121E-01
RMM:  13    -0.788140712245E+03    0.18878E-03   -0.27262E-03  1864   0.854E-02    0.416E-02
RMM:  14    -0.788140659260E+03    0.52985E-04   -0.39590E-04  1865   0.381E-02    0.329E-02
RMM:  15    -0.788140657458E+03    0.18022E-05   -0.25101E-04  1864   0.246E-02    0.134E-02
RMM:  16    -0.788140697182E+03   -0.39724E-04   -0.44596E-05  1883   0.115E-02    0.602E-03
RMM:  17    -0.788140688690E+03    0.84917E-05   -0.73570E-06  1539   0.449E-03    0.489E-03
RMM:  18    -0.788140684912E+03    0.37779E-05   -0.16268E-06  1222   0.215E-03    0.286E-03
RMM:  19    -0.788140676882E+03    0.80305E-05   -0.11368E-06  1152   0.170E-03    0.421E-04
RMM:  20    -0.788140677475E+03   -0.59311E-06   -0.20208E-07  1082   0.766E-04
   1 F= -.78814068E+03 E0= -.78814068E+03  d E =-.788141E+03
 curvature:   0.00 expect dE= 0.000E+00 dE for cont linesearch  0.000E+00
 trial: gam= 0.00000 g(F)=  0.390E+00 g(S)=  0.105E+00 ort = 0.000E+00 (trialstep = 0.100E+01)
 search vector abs. value=  0.495E+00
 bond charge predicted
 -----------------------------------------------------------------------------
|                                                                             |
|           W    W    AA    RRRRR   N    N  II  N    N   GGGG   !!!           |
|           W    W   A  A   R    R  NN   N  II  NN   N  G    G  !!!           |
|           W    W  A    A  R    R  N N  N  II  N N  N  G       !!!           |
|           W WW W  AAAAAA  RRRRR   N  N N  II  N  N N  G  GGG   !            |
|           WW  WW  A    A  R   R   N   NN  II  N   NN  G    G                |
|           W    W  A    A  R    R  N    N  II  N    N   GGGG   !!!           |
|                                                                             |
|     Tetrahedron method does not include variations of the Fermi             |
|     occupations, so forces and stress will be inaccurate. We suggest        |
|     using a different smearing scheme ISMEAR = 1 or 2 for metals in         |
|     relaxations.                                                            |
|                                                                             |
 -----------------------------------------------------------------------------

       N       E                     dE             d eps       ncg     rms          rms(c)
DAV:   1    -0.788434147665E+03   -0.29347E+00   -0.29865E+01  2008   0.111E+01    0.201E+00
RMM:   2    -0.788355304255E+03    0.78843E-01   -0.56421E-01  1864   0.166E+00    0.102E+00
RMM:   3    -0.788353562276E+03    0.17420E-02   -0.16604E-01  1864   0.729E-01    0.339E-01
RMM:   4    -0.788352107606E+03    0.14547E-02   -0.14732E-02  1871   0.269E-01    0.185E-01
RMM:   5    -0.788353035874E+03   -0.92827E-03   -0.38223E-03  1871   0.124E-01    0.435E-02
RMM:   6    -0.788352506013E+03    0.52986E-03   -0.57834E-04  1880   0.485E-02    0.310E-02
RMM:   7    -0.788352374896E+03    0.13112E-03   -0.16241E-04  1885   0.229E-02    0.705E-03
RMM:   8    -0.788352548351E+03   -0.17346E-03   -0.32129E-05  1881   0.923E-03    0.500E-03
RMM:   9    -0.788352478556E+03    0.69796E-04   -0.61560E-06  1475   0.424E-03    0.165E-03
RMM:  10    -0.788352464925E+03    0.13631E-04   -0.12157E-06  1213   0.176E-03    0.447E-04
RMM:  11    -0.788352461888E+03    0.30373E-05   -0.23267E-07   994   0.801E-04    0.190E-04
RMM:  12    -0.788352459529E+03    0.23581E-05   -0.47819E-08   659   0.448E-04    0.664E-05
RMM:  13    -0.788352460399E+03   -0.86984E-06   -0.34726E-09   446   0.345E-04
   2 F= -.78835246E+03 E0= -.78835246E+03  d E =-.211783E+00
 trial-energy change:   -0.211783  1 .order   -0.223949   -0.494698    0.046801
 step:   0.9016(harm=  0.9136)  dis= 0.01269  next Energy=  -788.354774 (dE=-0.214E+00)
 bond charge predicted
 -----------------------------------------------------------------------------
|                                                                             |
|           W    W    AA    RRRRR   N    N  II  N    N   GGGG   !!!           |
|           W    W   A  A   R    R  NN   N  II  NN   N  G    G  !!!           |
|           W    W  A    A  R    R  N N  N  II  N N  N  G       !!!           |
|           W WW W  AAAAAA  RRRRR   N  N N  II  N  N N  G  GGG   !            |
|           WW  WW  A    A  R   R   N   NN  II  N   NN  G    G                |
|           W    W  A    A  R    R  N    N  II  N    N   GGGG   !!!           |
|                                                                             |
|     Tetrahedron method does not include variations of the Fermi             |
|     occupations, so forces and stress will be inaccurate. We suggest        |
|     using a different smearing scheme ISMEAR = 1 or 2 for metals in         |
|     relaxations.                                                            |
|                                                                             |
 -----------------------------------------------------------------------------

       N       E                     dE             d eps       ncg     rms          rms(c)
DAV:   1    -0.788361699431E+03   -0.92399E-02   -0.28972E-01  2040   0.110E+00    0.196E-01
RMM:   2    -0.788356792183E+03    0.49072E-02   -0.53650E-03  1864   0.162E-01    0.995E-02
RMM:   3    -0.788355365241E+03    0.14269E-02   -0.14836E-03  1864   0.695E-02    0.322E-02
RMM:   4    -0.788355428039E+03   -0.62799E-04   -0.14358E-04  1868   0.260E-02    0.164E-02
RMM:   5    -0.788355461623E+03   -0.33584E-04   -0.33119E-05  1868   0.118E-02    0.339E-03
RMM:   6    -0.788355461812E+03   -0.18853E-06   -0.52762E-06  1553   0.452E-03
   3 F= -.78835546E+03 E0= -.78835546E+03  d E =-.214784E+00
 curvature:  -0.45 expect dE=-0.136E+00 dE for cont linesearch -0.471E-04
 trial: gam= 0.59979 g(F)=  0.297E+00 g(S)=  0.689E-02 ort = 0.721E-02 (trialstep = 0.980E+00)
 search vector abs. value=  0.491E+00
 bond charge predicted
 -----------------------------------------------------------------------------
|                                                                             |
|           W    W    AA    RRRRR   N    N  II  N    N   GGGG   !!!           |
|           W    W   A  A   R    R  NN   N  II  NN   N  G    G  !!!           |
|           W    W  A    A  R    R  N N  N  II  N N  N  G       !!!           |
|           W WW W  AAAAAA  RRRRR   N  N N  II  N  N N  G  GGG   !            |
|           WW  WW  A    A  R   R   N   NN  II  N   NN  G    G                |
|           W    W  A    A  R    R  N    N  II  N    N   GGGG   !!!           |
|                                                                             |
|     Tetrahedron method does not include variations of the Fermi             |
|     occupations, so forces and stress will be inaccurate. We suggest        |
|     using a different smearing scheme ISMEAR = 1 or 2 for metals in         |
|     relaxations.                                                            |
|                                                                             |
 -----------------------------------------------------------------------------

       N       E                     dE             d eps       ncg     rms          rms(c)
DAV:   1    -0.788638028856E+03   -0.28257E+00   -0.31573E+01  1928   0.117E+01    0.192E+00
RMM:   2    -0.788605311321E+03    0.32718E-01   -0.49815E-01  1864   0.154E+00    0.105E+00
RMM:   3    -0.788587999407E+03    0.17312E-01   -0.10102E-01  1868   0.641E-01    0.350E-01
RMM:   4    -0.788588724367E+03   -0.72496E-03   -0.15380E-02  1879   0.256E-01    0.169E-01
RMM:   5    -0.788587543122E+03    0.11812E-02   -0.21913E-03  1866   0.104E-01    0.380E-02
RMM:   6    -0.788588163205E+03   -0.62008E-03   -0.45767E-04  1876   0.412E-02    0.228E-02
RMM:   7    -0.788588228152E+03   -0.64947E-04   -0.11916E-04  1878   0.205E-02    0.613E-03
RMM:   8    -0.788588241037E+03   -0.12884E-04   -0.21607E-05  1868   0.851E-03    0.301E-03
RMM:   9    -0.788588184853E+03    0.56184E-04   -0.58037E-06  1590   0.434E-03    0.109E-03
RMM:  10    -0.788588199240E+03   -0.14387E-04   -0.11982E-06  1191   0.198E-03    0.551E-04
RMM:  11    -0.788588193303E+03    0.59373E-05   -0.26327E-07   997   0.903E-04    0.343E-04
RMM:  12    -0.788588196134E+03   -0.28314E-05   -0.57659E-08   659   0.483E-04    0.791E-05
RMM:  13    -0.788588195916E+03    0.21848E-06   -0.74582E-09   464   0.364E-04
   4 F= -.78858820E+03 E0= -.78858820E+03  d E =-.232734E+00
 trial-energy change:   -0.232734  1 .order   -0.135281   -0.302193    0.031631
 step:   0.9458(harm=  0.8874)  dis= 0.01797  next Energy=  -788.588749 (dE=-0.233E+00)
 bond charge predicted
 -----------------------------------------------------------------------------
|                                                                             |
|           W    W    AA    RRRRR   N    N  II  N    N   GGGG   !!!           |
|           W    W   A  A   R    R  NN   N  II  NN   N  G    G  !!!           |
|           W    W  A    A  R    R  N N  N  II  N N  N  G       !!!           |
|           W WW W  AAAAAA  RRRRR   N  N N  II  N  N N  G  GGG   !            |
|           WW  WW  A    A  R   R   N   NN  II  N   NN  G    G                |
|           W    W  A    A  R    R  N    N  II  N    N   GGGG   !!!           |
|                                                                             |
|     Tetrahedron method does not include variations of the Fermi             |
|     occupations, so forces and stress will be inaccurate. We suggest        |
|     using a different smearing scheme ISMEAR = 1 or 2 for metals in         |
|     relaxations.                                                            |
|                                                                             |
 -----------------------------------------------------------------------------

       N       E                     dE             d eps       ncg     rms          rms(c)
DAV:   1    -0.788585560367E+03    0.26358E-02   -0.39311E-02  2080   0.411E-01    0.665E-02
RMM:   2    -0.788585061387E+03    0.49898E-03   -0.61694E-04  1864   0.541E-02    0.371E-02
RMM:   3    -0.788585228956E+03   -0.16757E-03   -0.13408E-04  1866   0.230E-02    0.105E-02
RMM:   4    -0.788585264892E+03   -0.35937E-04   -0.18149E-05  1872   0.900E-03    0.492E-03
RMM:   5    -0.788585307118E+03   -0.42225E-04   -0.28581E-06  1287   0.369E-03    0.122E-03
RMM:   6    -0.788585286963E+03    0.20155E-04   -0.52479E-07  1153   0.141E-03    0.762E-04
RMM:   7    -0.788585285897E+03    0.10659E-05   -0.12175E-07   902   0.677E-04    0.175E-04
RMM:   8    -0.788585285564E+03    0.33281E-06   -0.12886E-08   446   0.366E-04
   5 F= -.78858529E+03 E0= -.78858529E+03  d E =-.229824E+00
 curvature:  -0.43 expect dE=-0.394E-01 dE for cont linesearch -0.366E-03
 ZBRENT: interpolating
 opt :   0.8868  next Energy=  -788.585889 (dE=-0.230E+00)
 bond charge predicted
 -----------------------------------------------------------------------------
|                                                                             |
|           W    W    AA    RRRRR   N    N  II  N    N   GGGG   !!!           |
|           W    W   A  A   R    R  NN   N  II  NN   N  G    G  !!!           |
|           W    W  A    A  R    R  N N  N  II  N N  N  G       !!!           |
|           W WW W  AAAAAA  RRRRR   N  N N  II  N  N N  G  GGG   !            |
|           WW  WW  A    A  R   R   N   NN  II  N   NN  G    G                |
|           W    W  A    A  R    R  N    N  II  N    N   GGGG   !!!           |
|                                                                             |
|     Tetrahedron method does not include variations of the Fermi             |
|     occupations, so forces and stress will be inaccurate. We suggest        |
|     using a different smearing scheme ISMEAR = 1 or 2 for metals in         |
|     relaxations.                                                            |
|                                                                             |
 -----------------------------------------------------------------------------

       N       E                     dE             d eps       ncg     rms          rms(c)
DAV:   1    -0.788580016342E+03    0.52696E-02   -0.11456E-01  1990   0.701E-01    0.114E-01
RMM:   2    -0.788579082739E+03    0.93360E-03   -0.17923E-03  1864   0.923E-02    0.632E-02
RMM:   3    -0.788579341814E+03   -0.25908E-03   -0.38794E-04  1866   0.393E-02    0.180E-02
RMM:   4    -0.788579407390E+03   -0.65576E-04   -0.52417E-05  1875   0.153E-02    0.836E-03
RMM:   5    -0.788579480107E+03   -0.72717E-04   -0.80116E-06  1804   0.628E-03    0.198E-03
RMM:   6    -0.788579445672E+03    0.34435E-04   -0.16263E-06  1203   0.250E-03    0.131E-03
RMM:   7    -0.788579444759E+03    0.91327E-06   -0.34782E-07  1135   0.109E-03
   6 F= -.78857944E+03 E0= -.78857944E+03  d E =-.223983E+00
 curvature:  -0.71 expect dE=-0.551E-01 dE for cont linesearch -0.941E-06
 trial: gam= 0.30510 g(F)=  0.779E-01 g(S)=  0.110E-03 ort =-0.809E-03 (trialstep = 0.962E+00)
 search vector abs. value=  0.123E+00
 bond charge predicted
 -----------------------------------------------------------------------------
|                                                                             |
|           W    W    AA    RRRRR   N    N  II  N    N   GGGG   !!!           |
|           W    W   A  A   R    R  NN   N  II  NN   N  G    G  !!!           |
|           W    W  A    A  R    R  N N  N  II  N N  N  G       !!!           |
|           W WW W  AAAAAA  RRRRR   N  N N  II  N  N N  G  GGG   !            |
|           WW  WW  A    A  R   R   N   NN  II  N   NN  G    G                |
|           W    W  A    A  R    R  N    N  II  N    N   GGGG   !!!           |
|                                                                             |
|     Tetrahedron method does not include variations of the Fermi             |
|     occupations, so forces and stress will be inaccurate. We suggest        |
|     using a different smearing scheme ISMEAR = 1 or 2 for metals in         |
|     relaxations.                                                            |
|                                                                             |
 -----------------------------------------------------------------------------

       N       E                     dE             d eps       ncg     rms          rms(c)
DAV:   1    -0.788670045204E+03   -0.90600E-01   -0.78352E+00  1928   0.595E+00    0.101E+00
RMM:   2    -0.788637205747E+03    0.32839E-01   -0.12627E-01  1864   0.767E-01    0.472E-01
RMM:   3    -0.788639933825E+03   -0.27281E-02   -0.19525E-02  1864   0.286E-01    0.240E-01
RMM:   4    -0.788641041558E+03   -0.11077E-02   -0.35415E-03  1876   0.119E-01    0.767E-02
RMM:   5    -0.788641013388E+03    0.28170E-04   -0.45983E-04  1867   0.488E-02    0.158E-02
RMM:   6    -0.788640910375E+03    0.10301E-03   -0.92872E-05  1891   0.187E-02    0.738E-03
RMM:   7    -0.788640959377E+03   -0.49002E-04   -0.19288E-05  1847   0.849E-03    0.214E-03
RMM:   8    -0.788640927902E+03    0.31475E-04   -0.43662E-06  1404   0.387E-03    0.101E-03
RMM:   9    -0.788640930637E+03   -0.27346E-05   -0.87194E-07  1162   0.177E-03    0.850E-04
RMM:  10    -0.788640935252E+03   -0.46152E-05   -0.18846E-07  1000   0.813E-04    0.221E-04
RMM:  11    -0.788640934547E+03    0.70507E-06   -0.50047E-08   690   0.480E-04
   7 F= -.78864093E+03 E0= -.78864093E+03  d E =-.614898E-01
 trial-energy change:   -0.061490  1 .order   -0.022901   -0.074819    0.029016
 step:   0.8728(harm=  0.6929)  dis= 0.00972  next Energy=  -788.642245 (dE=-0.628E-01)
 bond charge predicted
 -----------------------------------------------------------------------------
|                                                                             |
|           W    W    AA    RRRRR   N    N  II  N    N   GGGG   !!!           |
|           W    W   A  A   R    R  NN   N  II  NN   N  G    G  !!!           |
|           W    W  A    A  R    R  N N  N  II  N N  N  G       !!!           |
|           W WW W  AAAAAA  RRRRR   N  N N  II  N  N N  G  GGG   !            |
|           WW  WW  A    A  R   R   N   NN  II  N   NN  G    G                |
|           W    W  A    A  R    R  N    N  II  N    N   GGGG   !!!           |
|                                                                             |
|     Tetrahedron method does not include variations of the Fermi             |
|     occupations, so forces and stress will be inaccurate. We suggest        |
|     using a different smearing scheme ISMEAR = 1 or 2 for metals in         |
|     relaxations.                                                            |
|                                                                             |
 -----------------------------------------------------------------------------

       N       E                     dE             d eps       ncg     rms          rms(c)
DAV:   1    -0.788638179811E+03    0.27554E-02   -0.67226E-02  1992   0.552E-01    0.930E-02
RMM:   2    -0.788639748000E+03   -0.15682E-02   -0.10723E-03  1864   0.704E-02    0.433E-02
RMM:   3    -0.788639528738E+03    0.21926E-03   -0.16794E-04  1864   0.264E-02    0.219E-02
RMM:   4    -0.788639469851E+03    0.58887E-04   -0.30558E-05  1866   0.111E-02    0.681E-03
RMM:   5    -0.788639481999E+03   -0.12148E-04   -0.40325E-06  1392   0.457E-03    0.128E-03
RMM:   6    -0.788639489679E+03   -0.76802E-05   -0.72667E-07  1158   0.169E-03    0.560E-04
RMM:   7    -0.788639485586E+03    0.40933E-05   -0.14561E-07   921   0.726E-04    0.133E-04
RMM:   8    -0.788639487592E+03   -0.20062E-05   -0.20946E-08   498   0.404E-04    0.606E-05
RMM:   9    -0.788639487889E+03   -0.29681E-06   -0.52320E-10   328   0.345E-04
   8 F= -.78863949E+03 E0= -.78863949E+03  d E =-.600431E-01
 curvature:  -0.30 expect dE=-0.668E-02 dE for cont linesearch -0.103E-02
 ZBRENT: interpolating
 opt :   0.6908  next Energy=  -788.641353 (dE=-0.619E-01)
 bond charge predicted
 -----------------------------------------------------------------------------
|                                                                             |
|           W    W    AA    RRRRR   N    N  II  N    N   GGGG   !!!           |
|           W    W   A  A   R    R  NN   N  II  NN   N  G    G  !!!           |
|           W    W  A    A  R    R  N N  N  II  N N  N  G       !!!           |
|           W WW W  AAAAAA  RRRRR   N  N N  II  N  N N  G  GGG   !            |
|           WW  WW  A    A  R   R   N   NN  II  N   NN  G    G                |
|           W    W  A    A  R    R  N    N  II  N    N   GGGG   !!!           |
|                                                                             |
|     Tetrahedron method does not include variations of the Fermi             |
|     occupations, so forces and stress will be inaccurate. We suggest        |
|     using a different smearing scheme ISMEAR = 1 or 2 for metals in         |
|     relaxations.                                                            |
|                                                                             |
 -----------------------------------------------------------------------------

       N       E                     dE             d eps       ncg     rms          rms(c)
DAV:   1    -0.788631509055E+03    0.79785E-02   -0.28183E-01  1944   0.113E+00    0.190E-01
RMM:   2    -0.788634371918E+03   -0.28629E-02   -0.44844E-03  1864   0.144E-01    0.888E-02
RMM:   3    -0.788633931068E+03    0.44085E-03   -0.70541E-04  1864   0.540E-02    0.448E-02
RMM:   4    -0.788633817921E+03    0.11315E-03   -0.12716E-04  1870   0.227E-02    0.139E-02
RMM:   5    -0.788633847062E+03   -0.29141E-04   -0.16830E-05  1867   0.935E-03    0.254E-03
RMM:   6    -0.788633862876E+03   -0.15814E-04   -0.33194E-06  1309   0.354E-03    0.113E-03
RMM:   7    -0.788633853810E+03    0.90661E-05   -0.64770E-07  1150   0.153E-03    0.371E-04
RMM:   8    -0.788633858311E+03   -0.45012E-05   -0.12609E-07   909   0.689E-04    0.151E-04
RMM:   9    -0.788633858014E+03    0.29693E-06   -0.16220E-08   536   0.413E-04
   9 F= -.78863386E+03 E0= -.78863386E+03  d E =-.544133E-01
 curvature:  -0.55 expect dE=-0.543E-02 dE for cont linesearch -0.698E-06
 trial: gam= 0.14713 g(F)=  0.977E-02 g(S)=  0.156E-03 ort =-0.396E-03 (trialstep = 0.907E+00)
 search vector abs. value=  0.125E-01
 bond charge predicted
 -----------------------------------------------------------------------------
|                                                                             |
|           W    W    AA    RRRRR   N    N  II  N    N   GGGG   !!!           |
|           W    W   A  A   R    R  NN   N  II  NN   N  G    G  !!!           |
|           W    W  A    A  R    R  N N  N  II  N N  N  G       !!!           |
|           W WW W  AAAAAA  RRRRR   N  N N  II  N  N N  G  GGG   !            |
|           WW  WW  A    A  R   R   N   NN  II  N   NN  G    G                |
|           W    W  A    A  R    R  N    N  II  N    N   GGGG   !!!           |
|                                                                             |
|     Tetrahedron method does not include variations of the Fermi             |
|     occupations, so forces and stress will be inaccurate. We suggest        |
|     using a different smearing scheme ISMEAR = 1 or 2 for metals in         |
|     relaxations.                                                            |
|                                                                             |
 -----------------------------------------------------------------------------

       N       E                     dE             d eps       ncg     rms          rms(c)
DAV:   1    -0.788625051837E+03    0.88065E-02   -0.75692E-01  1905   0.186E+00    0.292E-01
RMM:   2    -0.788629757011E+03   -0.47052E-02   -0.10568E-02  1864   0.223E-01    0.168E-01
RMM:   3    -0.788630137935E+03   -0.38092E-03   -0.15841E-03  1865   0.847E-02    0.723E-02
RMM:   4    -0.788630379591E+03   -0.24166E-03   -0.36925E-04  1865   0.386E-02    0.193E-02
RMM:   5    -0.788630257507E+03    0.12208E-03   -0.48049E-05  1866   0.143E-02    0.607E-03
RMM:   6    -0.788630279698E+03   -0.22191E-04   -0.87289E-06  1659   0.562E-03    0.272E-03
RMM:   7    -0.788630247846E+03    0.31852E-04   -0.26507E-06  1284   0.297E-03    0.111E-03
RMM:   8    -0.788630263281E+03   -0.15435E-04   -0.45311E-07  1145   0.130E-03    0.560E-04
RMM:   9    -0.788630262923E+03    0.35791E-06   -0.86036E-08   792   0.592E-04
  10 F= -.78863026E+03 E0= -.78863026E+03  d E =0.359509E-02
 trial-energy change:    0.003595  1 .order   -0.001332   -0.008957    0.006292
 step:   0.5330(harm=  0.5330)  dis= 0.00200  next Energy=  -788.636488 (dE=-0.263E-02)
 bond charge predicted
 -----------------------------------------------------------------------------
|                                                                             |
|           W    W    AA    RRRRR   N    N  II  N    N   GGGG   !!!           |
|           W    W   A  A   R    R  NN   N  II  NN   N  G    G  !!!           |
|           W    W  A    A  R    R  N N  N  II  N N  N  G       !!!           |
|           W WW W  AAAAAA  RRRRR   N  N N  II  N  N N  G  GGG   !            |
|           WW  WW  A    A  R   R   N   NN  II  N   NN  G    G                |
|           W    W  A    A  R    R  N    N  II  N    N   GGGG   !!!           |
|                                                                             |
|     Tetrahedron method does not include variations of the Fermi             |
|     occupations, so forces and stress will be inaccurate. We suggest        |
|     using a different smearing scheme ISMEAR = 1 or 2 for metals in         |
|     relaxations.                                                            |
|                                                                             |
 -----------------------------------------------------------------------------

       N       E                     dE             d eps       ncg     rms          rms(c)
DAV:   1    -0.788636144375E+03   -0.58811E-02   -0.12894E-01  1913   0.769E-01    0.120E-01
RMM:   2    -0.788633880699E+03    0.22637E-02   -0.18022E-03  1864   0.923E-02    0.693E-02
RMM:   3    -0.788633614669E+03    0.26603E-03   -0.26798E-04  1865   0.349E-02    0.295E-02
RMM:   4    -0.788633521225E+03    0.93444E-04   -0.63024E-05  1865   0.159E-02    0.750E-03
RMM:   5    -0.788633580217E+03   -0.58992E-04   -0.84396E-06  1852   0.596E-03    0.239E-03
RMM:   6    -0.788633566328E+03    0.13890E-04   -0.14538E-06  1192   0.232E-03    0.108E-03
RMM:   7    -0.788633578737E+03   -0.12410E-04   -0.42336E-07  1143   0.114E-03    0.405E-04
RMM:   8    -0.788633572260E+03    0.64771E-05   -0.53600E-08   698   0.511E-04    0.213E-04
RMM:   9    -0.788633572136E+03    0.12458E-06   -0.81052E-09   452   0.401E-04
  11 F= -.78863357E+03 E0= -.78863357E+03  d E =0.285879E-03
 curvature:  -0.34 expect dE=-0.267E-03 dE for cont linesearch -0.247E-08
 trial: gam= 0.07239 g(F)=  0.282E-03 g(S)=  0.510E-03 ort = 0.956E-05 (trialstep = 0.833E+00)
 search vector abs. value=  0.859E-03
 bond charge predicted
 -----------------------------------------------------------------------------
|                                                                             |
|           W    W    AA    RRRRR   N    N  II  N    N   GGGG   !!!           |
|           W    W   A  A   R    R  NN   N  II  NN   N  G    G  !!!           |
|           W    W  A    A  R    R  N N  N  II  N N  N  G       !!!           |
|           W WW W  AAAAAA  RRRRR   N  N N  II  N  N N  G  GGG   !            |
|           WW  WW  A    A  R   R   N   NN  II  N   NN  G    G                |
|           W    W  A    A  R    R  N    N  II  N    N   GGGG   !!!           |
|                                                                             |
|     Tetrahedron method does not include variations of the Fermi             |
|     occupations, so forces and stress will be inaccurate. We suggest        |
|     using a different smearing scheme ISMEAR = 1 or 2 for metals in         |
|     relaxations.                                                            |
|                                                                             |
 -----------------------------------------------------------------------------

       N       E                     dE             d eps       ncg     rms          rms(c)
DAV:   1    -0.788632693108E+03    0.87915E-03   -0.25894E-02  1980   0.345E-01    0.586E-02
RMM:   2    -0.788631501108E+03    0.11920E-02   -0.43392E-04  1864   0.439E-02    0.342E-02
RMM:   3    -0.788631351033E+03    0.15007E-03   -0.79191E-05  1864   0.176E-02    0.141E-02
RMM:   4    -0.788631346455E+03    0.45782E-05   -0.16735E-05  1867   0.774E-03    0.412E-03
RMM:   5    -0.788631382462E+03   -0.36007E-04   -0.19917E-06  1205   0.288E-03    0.144E-03
RMM:   6    -0.788631384760E+03   -0.22984E-05   -0.40299E-07  1138   0.119E-03    0.562E-04
RMM:   7    -0.788631386106E+03   -0.13463E-05   -0.86473E-08   816   0.561E-04    0.208E-04
RMM:   8    -0.788631386431E+03   -0.32453E-06   -0.86629E-09   420   0.351E-04
  12 F= -.78863139E+03 E0= -.78863139E+03  d E =0.218570E-02
 trial-energy change:    0.002186  1 .order   -0.000408   -0.000660   -0.000155
 step:   1.0890(harm=  1.0890)  dis= 0.00072  next Energy=  -788.634004 (dE=-0.432E-03)
 bond charge predicted
 -----------------------------------------------------------------------------
|                                                                             |
|           W    W    AA    RRRRR   N    N  II  N    N   GGGG   !!!           |
|           W    W   A  A   R    R  NN   N  II  NN   N  G    G  !!!           |
|           W    W  A    A  R    R  N N  N  II  N N  N  G       !!!           |
|           W WW W  AAAAAA  RRRRR   N  N N  II  N  N N  G  GGG   !            |
|           WW  WW  A    A  R   R   N   NN  II  N   NN  G    G                |
|           W    W  A    A  R    R  N    N  II  N    N   GGGG   !!!           |
|                                                                             |
|     Tetrahedron method does not include variations of the Fermi             |
|     occupations, so forces and stress will be inaccurate. We suggest        |
|     using a different smearing scheme ISMEAR = 1 or 2 for metals in         |
|     relaxations.                                                            |
|                                                                             |
 -----------------------------------------------------------------------------

       N       E                     dE             d eps       ncg     rms          rms(c)
DAV:   1    -0.788631008899E+03    0.37721E-03   -0.24569E-03  2048   0.106E-01    0.180E-02
RMM:   2    -0.788630653146E+03    0.35575E-03   -0.41234E-05  1864   0.135E-02    0.105E-02
RMM:   3    -0.788630609964E+03    0.43182E-04   -0.75706E-06  1856   0.544E-03    0.434E-03
RMM:   4    -0.788630608724E+03    0.12395E-05   -0.15697E-06  1159   0.239E-03    0.130E-03
RMM:   5    -0.788630618384E+03   -0.96600E-05   -0.19878E-07  1087   0.843E-04    0.414E-04
RMM:   6    -0.788630620444E+03   -0.20602E-05   -0.15074E-08   444   0.373E-04    0.134E-04
RMM:   7    -0.788630619505E+03    0.93961E-06   -0.12378E-09   328   0.335E-04
  13 F= -.78863062E+03 E0= -.78863062E+03  d E =0.295263E-02
 curvature:  -0.59 expect dE=-0.563E-04 dE for cont linesearch -0.223E-08
 trial: gam= 0.11776 g(F)=  0.890E-04 g(S)=  0.652E-05 ort = 0.180E-05 (trialstep = 0.884E+00)
 search vector abs. value=  0.108E-03
 bond charge predicted
 -----------------------------------------------------------------------------
|                                                                             |
|           W    W    AA    RRRRR   N    N  II  N    N   GGGG   !!!           |
|           W    W   A  A   R    R  NN   N  II  NN   N  G    G  !!!           |
|           W    W  A    A  R    R  N N  N  II  N N  N  G       !!!           |
|           W WW W  AAAAAA  RRRRR   N  N N  II  N  N N  G  GGG   !            |
|           WW  WW  A    A  R   R   N   NN  II  N   NN  G    G                |
|           W    W  A    A  R    R  N    N  II  N    N   GGGG   !!!           |
|                                                                             |
|     Tetrahedron method does not include variations of the Fermi             |
|     occupations, so forces and stress will be inaccurate. We suggest        |
|     using a different smearing scheme ISMEAR = 1 or 2 for metals in         |
|     relaxations.                                                            |
|                                                                             |
 -----------------------------------------------------------------------------

       N       E                     dE             d eps       ncg     rms          rms(c)
DAV:   1    -0.788629486271E+03    0.11342E-02   -0.42048E-03  1971   0.132E-01    0.215E-02
RMM:   2    -0.788629250058E+03    0.23621E-03   -0.97554E-05  1864   0.216E-02    0.108E-02
RMM:   3    -0.788629405443E+03   -0.15538E-03   -0.14866E-05  1861   0.763E-03    0.437E-03
RMM:   4    -0.788629465101E+03   -0.59658E-04   -0.33291E-06  1378   0.320E-03    0.113E-03
RMM:   5    -0.788629466213E+03   -0.11118E-05   -0.36851E-07  1081   0.119E-03    0.474E-04
RMM:   6    -0.788629462536E+03    0.36770E-05   -0.45304E-08   649   0.481E-04    0.118E-04
RMM:   7    -0.788629463180E+03   -0.64399E-06   -0.84631E-10   351   0.347E-04
  14 F= -.78862946E+03 E0= -.78862946E+03  d E =0.115632E-02
 trial-energy change:    0.001156  1 .order   -0.000031   -0.000085    0.000022
 step:   0.7023(harm=  0.7023)  dis= 0.00017  next Energy=  -788.630653 (dE=-0.336E-04)
 bond charge predicted
 -----------------------------------------------------------------------------
|                                                                             |
|           W    W    AA    RRRRR   N    N  II  N    N   GGGG   !!!           |
|           W    W   A  A   R    R  NN   N  II  NN   N  G    G  !!!           |
|           W    W  A    A  R    R  N N  N  II  N N  N  G       !!!           |
|           W WW W  AAAAAA  RRRRR   N  N N  II  N  N N  G  GGG   !            |
|           WW  WW  A    A  R   R   N   NN  II  N   NN  G    G                |
|           W    W  A    A  R    R  N    N  II  N    N   GGGG   !!!           |
|                                                                             |
|     Tetrahedron method does not include variations of the Fermi             |
|     occupations, so forces and stress will be inaccurate. We suggest        |
|     using a different smearing scheme ISMEAR = 1 or 2 for metals in         |
|     relaxations.                                                            |
|                                                                             |
 -----------------------------------------------------------------------------

       N       E                     dE             d eps       ncg     rms          rms(c)
DAV:   1    -0.788629708179E+03   -0.24564E-03   -0.17828E-04  1968   0.271E-02    0.446E-03
RMM:   2    -0.788629755200E+03   -0.47021E-04   -0.41342E-06  1418   0.443E-03    0.223E-03
RMM:   3    -0.788629721868E+03    0.33332E-04   -0.59784E-07   974   0.154E-03    0.915E-04
RMM:   4    -0.788629710022E+03    0.11846E-04   -0.10584E-07   815   0.607E-04    0.227E-04
RMM:   5    -0.788629708533E+03    0.14885E-05   -0.59686E-11   173   0.288E-04    0.668E-05
RMM:   6    -0.788629709478E+03   -0.94456E-06   -0.67018E-11   134   0.295E-04
  15 F= -.78862971E+03 E0= -.78862971E+03  d E =0.910027E-03
 curvature:  -0.40 expect dE=-0.694E-05 dE for cont linesearch -0.510E-09
 trial: gam= 0.19580 g(F)=  0.174E-04 g(S)=  0.132E-06 ort =-0.373E-06 (trialstep = 0.848E+00)
 search vector abs. value=  0.215E-04
 bond charge predicted
 -----------------------------------------------------------------------------
|                                                                             |
|           W    W    AA    RRRRR   N    N  II  N    N   GGGG   !!!           |
|           W    W   A  A   R    R  NN   N  II  NN   N  G    G  !!!           |
|           W    W  A    A  R    R  N N  N  II  N N  N  G       !!!           |
|           W WW W  AAAAAA  RRRRR   N  N N  II  N  N N  G  GGG   !            |
|           WW  WW  A    A  R   R   N   NN  II  N   NN  G    G                |
|           W    W  A    A  R    R  N    N  II  N    N   GGGG   !!!           |
|                                                                             |
|     Tetrahedron method does not include variations of the Fermi             |
|     occupations, so forces and stress will be inaccurate. We suggest        |
|     using a different smearing scheme ISMEAR = 1 or 2 for metals in         |
|     relaxations.                                                            |
|                                                                             |
 -----------------------------------------------------------------------------

       N       E                     dE             d eps       ncg     rms          rms(c)
DAV:   1    -0.788629606368E+03    0.10216E-03   -0.77926E-04  1953   0.569E-02    0.850E-03
RMM:   2    -0.788629687713E+03   -0.81344E-04   -0.15686E-05  1864   0.897E-03    0.443E-03
RMM:   3    -0.788629652613E+03    0.35100E-04   -0.34554E-06  1345   0.343E-03    0.161E-03
RMM:   4    -0.788629649642E+03    0.29706E-05   -0.39280E-07  1065   0.123E-03    0.741E-04
RMM:   5    -0.788629649625E+03    0.17070E-07   -0.51045E-08   705   0.538E-04
  16 F= -.78862965E+03 E0= -.78862965E+03  d E =0.598524E-04
 trial-energy change:    0.000060  1 .order   -0.000002   -0.000015    0.000012
 step:   0.4757(harm=  0.4757)  dis= 0.00006  next Energy=  -788.629714 (dE=-0.416E-05)
 bond charge predicted
 -----------------------------------------------------------------------------
|                                                                             |
|           W    W    AA    RRRRR   N    N  II  N    N   GGGG   !!!           |
|           W    W   A  A   R    R  NN   N  II  NN   N  G    G  !!!           |
|           W    W  A    A  R    R  N N  N  II  N N  N  G       !!!           |
|           W WW W  AAAAAA  RRRRR   N  N N  II  N  N N  G  GGG   !            |
|           WW  WW  A    A  R   R   N   NN  II  N   NN  G    G                |
|           W    W  A    A  R    R  N    N  II  N    N   GGGG   !!!           |
|                                                                             |
|     Tetrahedron method does not include variations of the Fermi             |
|     occupations, so forces and stress will be inaccurate. We suggest        |
|     using a different smearing scheme ISMEAR = 1 or 2 for metals in         |
|     relaxations.                                                            |
|                                                                             |
 -----------------------------------------------------------------------------

       N       E                     dE             d eps       ncg     rms          rms(c)
DAV:   1    -0.788629700541E+03   -0.50899E-04   -0.15014E-04  1972   0.250E-02    0.374E-03
RMM:   2    -0.788629662949E+03    0.37592E-04   -0.30198E-06  1299   0.394E-03    0.194E-03
RMM:   3    -0.788629678486E+03   -0.15536E-04   -0.59980E-07   948   0.145E-03    0.731E-04
RMM:   4    -0.788629679293E+03   -0.80670E-06   -0.62876E-08   697   0.540E-04
  17 F= -.78862968E+03 E0= -.78862968E+03  d E =0.301852E-04
 curvature:  -0.29 expect dE=-0.237E-06 dE for cont linesearch -0.319E-09
 trial: gam= 0.05837 g(F)=  0.237E-06 g(S)=  0.570E-06 ort =-0.153E-06 (trialstep = 0.773E+00)
 search vector abs. value=  0.863E-06
 reached required accuracy - stopping structural energy minimisation
 -----------------------------------------------------------------------------
|                                                                             |
|           W    W    AA    RRRRR   N    N  II  N    N   GGGG   !!!           |
|           W    W   A  A   R    R  NN   N  II  NN   N  G    G  !!!           |
|           W    W  A    A  R    R  N N  N  II  N N  N  G       !!!           |
|           W WW W  AAAAAA  RRRRR   N  N N  II  N  N N  G  GGG   !            |
|           WW  WW  A    A  R   R   N   NN  II  N   NN  G    G                |
|           W    W  A    A  R    R  N    N  II  N    N   GGGG   !!!           |
|                                                                             |
|     Tetrahedron method does not include variations of the Fermi             |
|     occupations, so forces and stress will be inaccurate. We suggest        |
|     using a different smearing scheme ISMEAR = 1 or 2 for metals in         |
|     relaxations.                                                            |
|                                                                             |
 -----------------------------------------------------------------------------

Warning: ieee_invalid is signaling
Warning: ieee_divide_by_zero is signaling
Warning: ieee_underflow is signaling
Warning: ieee_inexact is signaling
FORTRAN STOP
