<?xml version="1.0" encoding="ISO-8859-1"?>
<modeling>
 <generator>
  <i name="program" type="string">vasp </i>
  <i name="version" type="string">6.2.0  </i>
  <i name="subversion" type="string">18Jan21 (build Feb 25 2021 07:51:20) complex                          parallel </i>
  <i name="platform" type="string">LinuxPGI </i>
  <i name="date" type="string">2022 04 06 </i>
  <i name="time" type="string">17:57:34 </i>
 </generator>
 <incar>
  <i type="string" name="PREC">Accurate</i>
  <i type="string" name="ALGO">Fast</i>
  <i type="int" name="IBRION">     2</i>
  <i name="EDIFF">      0.00000100</i>
  <i type="int" name="NSW">   300</i>
  <i type="int" name="ISIF">     4</i>
  <i name="ENCUT">    700.00000000</i>
  <i type="string" name="LREAL">Auto</i>
  <i type="int" name="ISMEAR">    -5</i>
  <i name="SIGMA">      0.05000000</i>
  <i type="logical" name="LWAVE"> F  </i>
 </incar>
 <primitive_cell>
  <structure name="primitive_cell" >
   <crystal>
    <varray name="basis" >
     <v>       4.56664100       0.03516250       2.08684250 </v>
     <v>       1.35472450       4.36121200       2.08684250 </v>
     <v>       0.04735900       0.03516250       5.02064500 </v>
    </varray>
    <i name="volume">     99.08922162 </i>
    <varray name="rec_basis" >
     <v>       0.22023302      -0.06764368      -0.00160368 </v>
     <v>      -0.00104108       0.23038482      -0.00160370 </v>
     <v>      -0.09110763      -0.06764372       0.20051075 </v>
    </varray>
   </crystal>
   <varray name="positions" >
    <v>       0.32079000       0.80103000       0.80103000 </v>
    <v>       0.80103000       0.80103000       0.32079000 </v>
    <v>       0.80103000       0.32079000       0.80103000 </v>
    <v>       0.67921000       0.19897000       0.19897000 </v>
    <v>       0.19897000       0.19897000       0.67921000 </v>
    <v>       0.19897000       0.67921000       0.19897000 </v>
    <v>       0.66458600       0.00023000       0.00023000 </v>
    <v>       0.00023000       0.00023000       0.66458600 </v>
    <v>       0.00023000       0.66458600       0.00023000 </v>
    <v>       0.33541400       0.99977000       0.99977000 </v>
    <v>       0.99977000       0.99977000       0.33541400 </v>
    <v>       0.99977000       0.33541400       0.99977000 </v>
    <v>       0.63079400       0.63079400       0.63079400 </v>
    <v>       0.36920600       0.36920600       0.36920600 </v>
   </varray>
  </structure>
  <varray name="primitive_index" >
   <v type="int" >        1 </v>
   <v type="int" >        9 </v>
   <v type="int" >       17 </v>
   <v type="int" >       28 </v>
   <v type="int" >       35 </v>
   <v type="int" >       42 </v>
   <v type="int" >       52 </v>
   <v type="int" >       59 </v>
   <v type="int" >       66 </v>
   <v type="int" >       76 </v>
   <v type="int" >       83 </v>
   <v type="int" >       90 </v>
   <v type="int" >       97 </v>
   <v type="int" >      105 </v>
  </varray>
 </primitive_cell>
 <kpoints>
  <generation param="Gamma">
   <v type="int" name="divisions">       2        2        2 </v>
   <v name="usershift">      0.00000000       0.00000000       0.00000000 </v>
   <v name="genvec1">      0.50000000      -0.00000000      -0.00000000 </v>
   <v name="genvec2">     -0.00000000       0.50000000      -0.00000000 </v>
   <v name="genvec3">      0.00000000       0.00000000       0.50000000 </v>
   <v name="shift">      0.00000000       0.00000000       0.00000000 </v>
  </generation>
  <varray name="kpointlist" >
   <v>       0.00000000       0.00000000       0.00000000 </v>
   <v>       0.50000000       0.00000000       0.00000000 </v>
   <v>       0.50000000       0.50000000       0.00000000 </v>
   <v>       0.50000000       0.50000000       0.50000000 </v>
  </varray>
  <varray name="weights" >
   <v>       0.12500000 </v>
   <v>       0.37500000 </v>
   <v>       0.37500000 </v>
   <v>       0.12500000 </v>
  </varray>
  <varray name="tetrahedronlist"  type="int" >
   <v type="int" >       12        1        2        3        4 </v>
   <v type="int" >       12        2        2        3        3 </v>
   <v type="int" >       12        1        2        2        3 </v>
   <v type="int" >       12        2        3        3        4 </v>
  </varray>
  <i name="volumeweight">      0.02083333 </i>
 </kpoints>
 <parameters>
  <separator name="general" >
   <i type="string" name="SYSTEM">unknown system</i>
   <i type="logical" name="LCOMPAT"> F  </i>
  </separator>
  <separator name="electronic" >
   <i type="string" name="PREC">accura</i>
   <i name="ENMAX">    700.00000000</i>
   <i name="ENAUG">    644.87300000</i>
   <i name="EDIFF">      0.00000100</i>
   <i type="int" name="IALGO">    68</i>
   <i type="int" name="IWAVPR">    11</i>
   <i type="int" name="NBANDS">   233</i>
   <i type="int" name="NBANDSLOW">    -1</i>
   <i type="int" name="NBANDSHIGH">    -1</i>
   <i name="NELECT">    352.00000000</i>
   <i type="int" name="TURBO">     0</i>
   <i type="int" name="IRESTART">     0</i>
   <i type="int" name="NREBOOT">     0</i>
   <i type="int" name="NMIN">     0</i>
   <i name="EREF">      0.00000000</i>
   <separator name="electronic smearing" >
    <i type="int" name="ISMEAR">    -5</i>
    <i name="SIGMA">      0.05000000</i>
    <i name="KSPACING">      0.50000000</i>
    <i type="logical" name="KGAMMA"> T  </i>
    <i type="logical" name="KBLOWUP"> T  </i>
   </separator>
   <separator name="electronic projectors" >
    <i type="logical" name="LREAL"> T  </i>
    <v name="ROPT">     -0.00025000     -0.00025000</v>
    <i type="int" name="LMAXPAW">  -100</i>
    <i type="int" name="LMAXMIX">     2</i>
    <i type="logical" name="NLSPLINE"> F  </i>
   </separator>
   <separator name="electronic startup" >
    <i type="int" name="ISTART">     0</i>
    <i type="int" name="ICHARG">     2</i>
    <i type="int" name="INIWAV">     1</i>
   </separator>
   <separator name="electronic spin" >
    <i type="int" name="ISPIN">     1</i>
    <i type="logical" name="LNONCOLLINEAR"> F  </i>
    <v name="MAGMOM">      1.00000000      1.00000000      1.00000000      1.00000000      1.00000000      1.00000000      1.00000000      1.00000000      1.00000000      1.00000000      1.00000000      1.00000000      1.00000000      1.00000000      1.00000000      1.00000000      1.00000000      1.00000000      1.00000000      1.00000000
      1.00000000      1.00000000      1.00000000      1.00000000      1.00000000      1.00000000      1.00000000      1.00000000      1.00000000      1.00000000      1.00000000      1.00000000      1.00000000      1.00000000      1.00000000      1.00000000      1.00000000      1.00000000      1.00000000      1.00000000
      1.00000000      1.00000000      1.00000000      1.00000000      1.00000000      1.00000000      1.00000000      1.00000000      1.00000000      1.00000000      1.00000000      1.00000000      1.00000000      1.00000000      1.00000000      1.00000000      1.00000000      1.00000000      1.00000000      1.00000000
      1.00000000      1.00000000      1.00000000      1.00000000      1.00000000      1.00000000      1.00000000      1.00000000      1.00000000      1.00000000      1.00000000      1.00000000      1.00000000      1.00000000      1.00000000      1.00000000      1.00000000      1.00000000      1.00000000      1.00000000
      1.00000000      1.00000000      1.00000000      1.00000000      1.00000000      1.00000000      1.00000000      1.00000000      1.00000000      1.00000000      1.00000000      1.00000000      1.00000000      1.00000000      1.00000000      1.00000000      1.00000000      1.00000000      1.00000000      1.00000000
      1.00000000      1.00000000      1.00000000      1.00000000      1.00000000      1.00000000      1.00000000      1.00000000      1.00000000      1.00000000      1.00000000      1.00000000</v>
    <i name="NUPDOWN">     -1.00000000</i>
    <i type="logical" name="LSORBIT"> F  </i>
    <v name="SAXIS">      0.00000000      0.00000000      1.00000000</v>
    <i type="logical" name="LSPIRAL"> F  </i>
    <v name="QSPIRAL">      0.00000000      0.00000000      0.00000000</v>
    <i type="logical" name="LZEROZ"> F  </i>
   </separator>
   <separator name="electronic exchange-correlation" >
    <i type="logical" name="LASPH"> F  </i>
    <i type="logical" name="LMETAGGA"> F  </i>
   </separator>
   <separator name="electronic convergence" >
    <i type="int" name="NELM">    60</i>
    <i type="int" name="NELMDL">    -5</i>
    <i type="int" name="NELMIN">     2</i>
    <i name="ENINI">    700.00000000</i>
    <separator name="electronic convergence detail" >
     <i type="logical" name="LDIAG"> T  </i>
     <i type="logical" name="LSUBROT"> F  </i>
     <i name="WEIMIN">      0.00100000</i>
     <i name="EBREAK">      0.00000000</i>
     <i name="DEPER">      0.30000000</i>
     <i type="int" name="NRMM">     4</i>
     <i name="TIME">      0.40000000</i>
    </separator>
   </separator>
   <separator name="electronic mixer" >
    <i name="AMIX">      0.40000000</i>
    <i name="BMIX">      1.00000000</i>
    <i name="AMIN">      0.10000000</i>
    <i name="AMIX_MAG">      1.60000000</i>
    <i name="BMIX_MAG">      1.00000000</i>
    <separator name="electronic mixer details" >
     <i type="int" name="IMIX">     4</i>
     <i type="logical" name="MIXFIRST"> F  </i>
     <i type="int" name="MAXMIX">   -45</i>
     <i name="WC">    100.00000000</i>
     <i type="int" name="INIMIX">     1</i>
     <i type="int" name="MIXPRE">     1</i>
     <i type="int" name="MREMOVE">     5</i>
    </separator>
   </separator>
   <separator name="electronic dipolcorrection" >
    <i type="logical" name="LDIPOL"> F  </i>
    <i type="logical" name="LMONO"> F  </i>
    <i type="int" name="IDIPOL">     0</i>
    <i name="EPSILON">      1.00000000</i>
    <v name="DIPOL">   -100.00000000   -100.00000000   -100.00000000</v>
    <i name="EFIELD">      0.00000000</i>
   </separator>
  </separator>
  <separator name="grids" >
   <i type="int" name="NGX">    90</i>
   <i type="int" name="NGY">    90</i>
   <i type="int" name="NGZ">    90</i>
   <i type="int" name="NGXF">   180</i>
   <i type="int" name="NGYF">   180</i>
   <i type="int" name="NGZF">   180</i>
   <i type="logical" name="ADDGRID"> F  </i>
  </separator>
  <separator name="ionic" >
   <i type="int" name="NSW">   300</i>
   <i type="int" name="IBRION">     2</i>
   <i type="int" name="MDALGO">     0</i>
   <i type="int" name="ISIF">     4</i>
   <i name="PSTRESS">      0.00000000</i>
   <i name="EDIFFG">      0.00001000</i>
   <i type="int" name="NFREE">     1</i>
   <i name="POTIM">      0.50000000</i>
   <i name="SMASS">     -3.00000000</i>
   <i name="SCALEE">      1.00000000</i>
  </separator>
  <separator name="ionic md" >
   <i name="TEBEG">      0.00010000</i>
   <i name="TEEND">      0.00010000</i>
   <i type="int" name="NBLOCK">     1</i>
   <i type="int" name="KBLOCK">   300</i>
   <i type="int" name="NPACO">   256</i>
   <i name="APACO">     16.00000000</i>
  </separator>
  <separator name="symmetry" >
   <i type="int" name="ISYM">     2</i>
   <i name="SYMPREC">      0.00001000</i>
  </separator>
  <separator name="dos" >
   <i type="int" name="LORBIT">     0</i>
   <v name="RWIGS">     -1.00000000     -1.00000000</v>
   <i type="int" name="NEDOS">   301</i>
   <i name="EMIN">     10.00000000</i>
   <i name="EMAX">    -10.00000000</i>
   <i name="EFERMI">      0.00000000</i>
  </separator>
  <separator name="writing" >
   <i type="int" name="NWRITE">     2</i>
   <i type="logical" name="LWAVE"> F  </i>
   <i type="logical" name="LDOWNSAMPLE"> F  </i>
   <i type="logical" name="LCHARG"> T  </i>
   <i type="logical" name="LPARD"> F  </i>
   <i type="logical" name="LVTOT"> F  </i>
   <i type="logical" name="LVHAR"> F  </i>
   <i type="logical" name="LELF"> F  </i>
   <i type="logical" name="LOPTICS"> F  </i>
   <v name="STM">      0.00000000      0.00000000      0.00000000      0.00000000      0.00000000      0.00000000      0.00000000</v>
  </separator>
  <separator name="performance" >
   <i type="int" name="NPAR">     1</i>
   <i type="int" name="NSIM">     4</i>
   <i type="int" name="NBLK">    -1</i>
   <i type="logical" name="LPLANE"> T  </i>
   <i type="logical" name="LSCALAPACK"> T  </i>
   <i type="logical" name="LSCAAWARE"> F  </i>
   <i type="logical" name="LSCALU"> F  </i>
   <i type="logical" name="LASYNC"> F  </i>
   <i type="logical" name="LORBITALREAL"> F  </i>
  </separator>
  <separator name="miscellaneous" >
   <i type="int" name="IDIOT">     3</i>
   <i type="int" name="PHON_NSTRUCT">    -1</i>
   <i type="logical" name="LMUSIC"> F  </i>
   <v name="POMASS">     10.81100000     12.01100000</v>
   <v name="DARWINR">      0.00000000      0.00000000</v>
   <v name="DARWINV">      1.00000000      1.00000000</v>
   <i type="logical" name="LCORR"> T  </i>
  </separator>
  <i type="logical" name="GGA_COMPAT"> T  </i>
  <i type="logical" name="LBERRY"> F  </i>
  <i type="int" name="ICORELEVEL">     0</i>
  <i type="logical" name="LDAU"> F  </i>
  <i type="int" name="I_CONSTRAINED_M">     0</i>
  <separator name="electronic exchange-correlation" >
   <i type="string" name="GGA">--</i>
   <i type="int" name="VOSKOWN">     0</i>
   <i type="logical" name="LHFCALC"> F  </i>
   <i type="string" name="PRECFOCK"></i>
   <i type="logical" name="LSYMGRAD"> F  </i>
   <i type="logical" name="LHFONE"> F  </i>
   <i type="logical" name="LRHFCALC"> F  </i>
   <i type="logical" name="LTHOMAS"> F  </i>
   <i type="logical" name="LMODELHF"> F  </i>
   <i type="logical" name="LFOCKACE"> F  </i>
   <i name="ENCUT4O">     -1.00000000</i>
   <i type="int" name="EXXOEP">     0</i>
   <i type="int" name="FOURORBIT">     0</i>
   <i name="AEXX">      0.00000000</i>
   <i name="HFALPHA">      0.00000000</i>
   <i name="MCALPHA">      0.00000000</i>
   <i name="ALDAX">      1.00000000</i>
   <i name="AGGAX">      1.00000000</i>
   <i name="ALDAC">      1.00000000</i>
   <i name="AGGAC">      1.00000000</i>
   <i type="int" name="NKREDX">     1</i>
   <i type="int" name="NKREDY">     1</i>
   <i type="int" name="NKREDZ">     1</i>
   <i type="logical" name="SHIFTRED"> F  </i>
   <i type="logical" name="ODDONLY"> F  </i>
   <i type="logical" name="EVENONLY"> F  </i>
   <i type="int" name="LMAXFOCK">     0</i>
   <i type="int" name="NMAXFOCKAE">     0</i>
   <i type="logical" name="LFOCKAEDFT"> F  </i>
   <i name="HFSCREEN">      0.00000000</i>
   <i name="HFSCREENC">      0.00000000</i>
   <i type="int" name="NBANDSGWLOW">     0</i>
  </separator>
  <separator name="vdW DFT" >
   <i type="logical" name="LUSE_VDW"> F  </i>
   <i name="Zab_VDW">     -0.84910000</i>
   <i name="PARAM1">      0.12340000</i>
   <i name="PARAM2">      1.00000000</i>
   <i name="PARAM3">      0.00000000</i>
  </separator>
  <separator name="model GW" >
   <i type="int" name="MODEL_GW">     0</i>
   <i name="MODEL_EPS0">      4.24668093</i>
   <i name="MODEL_ALPHA">      1.00000000</i>
  </separator>
  <separator name="linear response parameters" >
   <i type="logical" name="LEPSILON"> F  </i>
   <i type="logical" name="LRPA"> F  </i>
   <i type="logical" name="LNABLA"> F  </i>
   <i type="logical" name="LVEL"> F  </i>
   <i type="int" name="KINTER">     0</i>
   <i name="CSHIFT">      0.10000000</i>
   <i name="OMEGAMAX">     -1.00000000</i>
   <i name="DEG_THRESHOLD">      0.00200000</i>
   <i name="RTIME">     -0.10000000</i>
   <i name="WPLASMAI">      0.00000000</i>
   <v name="DFIELD">      0.00000000      0.00000000      0.00000000</v>
   <v name="WPLASMA">      0.00000000      0.00000000      0.00000000      0.00000000      0.00000000      0.00000000      0.00000000      0.00000000      0.00000000</v>
  </separator>
  <separator name="orbital magnetization" >
   <i type="logical" name="NUCIND"> F  </i>
   <v name="MAGPOS">      0.00000000      0.00000000      0.00000000</v>
   <i type="logical" name="LNICSALL"> T  </i>
   <i type="logical" name="ORBITALMAG"> F  </i>
   <i type="logical" name="LMAGBLOCH"> F  </i>
   <i type="logical" name="LCHIMAG"> F  </i>
   <i type="logical" name="LGAUGE"> T  </i>
   <i type="int" name="MAGATOM">     0</i>
   <v name="MAGDIPOL">      0.00000000      0.00000000      0.00000000</v>
   <v name="AVECCONST">      0.00000000      0.00000000      0.00000000</v>
  </separator>
  <separator name="response functions" >
   <i type="logical" name="LFINITE_TEMPERATURE"> F  </i>
   <i type="logical" name="LADDER"> F  </i>
   <i type="logical" name="LRPAFORCE"> F  </i>
   <i type="logical" name="LFXC"> F  </i>
   <i type="logical" name="LHARTREE"> T  </i>
   <i type="int" name="IBSE">     0</i>
   <v type="int" name="KPOINT">    -1     0     0     0</v>
   <i type="logical" name="LTCTC"> F  </i>
   <i type="logical" name="LTCTE"> F  </i>
   <i type="logical" name="LTETE"> F  </i>
   <i type="logical" name="LTRIPLET"> F  </i>
   <i type="logical" name="LFXCEPS"> F  </i>
   <i type="logical" name="LFXHEG"> F  </i>
   <i type="int" name="NATURALO">     2</i>
   <i type="logical" name="LHOLEGF"> F  </i>
   <i type="logical" name="L2ORDER"> F  </i>
   <i type="logical" name="LDMP1"> F  </i>
   <i type="logical" name="LMP2LT"> F  </i>
   <i type="logical" name="LSMP2LT"> F  </i>
   <i type="logical" name="LGWLF"> F  </i>
   <i name="ENCUTGW">     -2.00000000</i>
   <i name="ENCUTGWSOFT">     -2.00000000</i>
   <i name="ENCUTLF">     -1.00000000</i>
   <i type="logical" name="LESF_SPLINES"> F  </i>
   <i type="int" name="LMAXMP2">    -1</i>
   <i name="SCISSOR">      0.00000000</i>
   <i type="int" name="NOMEGA">     0</i>
   <i type="int" name="NOMEGAR">     0</i>
   <i type="int" name="NBANDSGW">    -1</i>
   <i type="int" name="NBANDSO">    -1</i>
   <i type="int" name="NBANDSV">    -1</i>
   <i type="int" name="NELM">     1</i>
   <i type="int" name="NELMHF">     1</i>
   <i type="int" name="DIM">     3</i>
   <i type="int" name="IESPILON">     4</i>
   <i type="int" name="ANTIRES">     0</i>
   <i name="OMEGAMAX">    -30.00000000</i>
   <i name="OMEGAMIN">    -30.00000000</i>
   <i name="OMEGATL">   -200.00000000</i>
   <i type="int" name="OMEGAGRID">     0</i>
   <i name="CSHIFT">     -0.10000000</i>
   <i type="logical" name="LSELFENERGY"> F  </i>
   <i type="logical" name="LSPECTRAL"> F  </i>
   <i type="logical" name="LSPECTRALGW"> F  </i>
   <i type="logical" name="LSINGLES"> F  </i>
   <i type="logical" name="LFERMIGW"> F  </i>
   <i type="logical" name="ODDONLYGW"> F  </i>
   <i type="logical" name="EVENONLYGW"> F  </i>
   <i type="int" name="NKREDLFX">     1</i>
   <i type="int" name="NKREDLFY">     1</i>
   <i type="int" name="NKREDLFZ">     1</i>
   <i type="int" name="MAXMEM">  2800</i>
   <i type="int" name="TELESCOPE">     0</i>
   <i type="int" name="NTAUPAR">    -1</i>
   <i type="int" name="NOMEGAPAR">    -1</i>
   <i name="DAMP_NEWTON">      0.80000001</i>
   <i name="LAMBDA">      1.00000000</i>
  </separator>
  <separator name="External order field" >
   <i name="OFIELD_KAPPA">      0.00000000</i>
   <v name="OFIELD_K">      0.00000000      0.00000000      0.00000000</v>
   <i name="OFIELD_Q6_NEAR">      0.00000000</i>
   <i name="OFIELD_Q6_FAR">      0.00000000</i>
   <i name="OFIELD_A">      0.00000000</i>
  </separator>
 </parameters>
 <atominfo>
  <atoms>     112 </atoms>
  <types>       2 </types>
  <array name="atoms" >
   <dimension dim="1">ion</dimension>
   <field type="string">element</field>
   <field type="int">atomtype</field>
   <set>
    <rc><c>B </c><c>   1</c></rc>
    <rc><c>B </c><c>   1</c></rc>
    <rc><c>B </c><c>   1</c></rc>
    <rc><c>B </c><c>   1</c></rc>
    <rc><c>B </c><c>   1</c></rc>
    <rc><c>B </c><c>   1</c></rc>
    <rc><c>B </c><c>   1</c></rc>
    <rc><c>B </c><c>   1</c></rc>
    <rc><c>B </c><c>   1</c></rc>
    <rc><c>B </c><c>   1</c></rc>
    <rc><c>B </c><c>   1</c></rc>
    <rc><c>B </c><c>   1</c></rc>
    <rc><c>B </c><c>   1</c></rc>
    <rc><c>B </c><c>   1</c></rc>
    <rc><c>B </c><c>   1</c></rc>
    <rc><c>B </c><c>   1</c></rc>
    <rc><c>B </c><c>   1</c></rc>
    <rc><c>B </c><c>   1</c></rc>
    <rc><c>B </c><c>   1</c></rc>
    <rc><c>B </c><c>   1</c></rc>
    <rc><c>B </c><c>   1</c></rc>
    <rc><c>B </c><c>   1</c></rc>
    <rc><c>B </c><c>   1</c></rc>
    <rc><c>B </c><c>   1</c></rc>
    <rc><c>B </c><c>   1</c></rc>
    <rc><c>B </c><c>   1</c></rc>
    <rc><c>B </c><c>   1</c></rc>
    <rc><c>B </c><c>   1</c></rc>
    <rc><c>B </c><c>   1</c></rc>
    <rc><c>B </c><c>   1</c></rc>
    <rc><c>B </c><c>   1</c></rc>
    <rc><c>B </c><c>   1</c></rc>
    <rc><c>B </c><c>   1</c></rc>
    <rc><c>B </c><c>   1</c></rc>
    <rc><c>B </c><c>   1</c></rc>
    <rc><c>B </c><c>   1</c></rc>
    <rc><c>B </c><c>   1</c></rc>
    <rc><c>B </c><c>   1</c></rc>
    <rc><c>B </c><c>   1</c></rc>
    <rc><c>B </c><c>   1</c></rc>
    <rc><c>B </c><c>   1</c></rc>
    <rc><c>B </c><c>   1</c></rc>
    <rc><c>B </c><c>   1</c></rc>
    <rc><c>B </c><c>   1</c></rc>
    <rc><c>B </c><c>   1</c></rc>
    <rc><c>B </c><c>   1</c></rc>
    <rc><c>B </c><c>   1</c></rc>
    <rc><c>B </c><c>   1</c></rc>
    <rc><c>B </c><c>   1</c></rc>
    <rc><c>B </c><c>   1</c></rc>
    <rc><c>B </c><c>   1</c></rc>
    <rc><c>B </c><c>   1</c></rc>
    <rc><c>B </c><c>   1</c></rc>
    <rc><c>B </c><c>   1</c></rc>
    <rc><c>B </c><c>   1</c></rc>
    <rc><c>B </c><c>   1</c></rc>
    <rc><c>B </c><c>   1</c></rc>
    <rc><c>B </c><c>   1</c></rc>
    <rc><c>B </c><c>   1</c></rc>
    <rc><c>B </c><c>   1</c></rc>
    <rc><c>B </c><c>   1</c></rc>
    <rc><c>B </c><c>   1</c></rc>
    <rc><c>B </c><c>   1</c></rc>
    <rc><c>B </c><c>   1</c></rc>
    <rc><c>B </c><c>   1</c></rc>
    <rc><c>B </c><c>   1</c></rc>
    <rc><c>B </c><c>   1</c></rc>
    <rc><c>B </c><c>   1</c></rc>
    <rc><c>B </c><c>   1</c></rc>
    <rc><c>B </c><c>   1</c></rc>
    <rc><c>B </c><c>   1</c></rc>
    <rc><c>B </c><c>   1</c></rc>
    <rc><c>B </c><c>   1</c></rc>
    <rc><c>B </c><c>   1</c></rc>
    <rc><c>B </c><c>   1</c></rc>
    <rc><c>B </c><c>   1</c></rc>
    <rc><c>B </c><c>   1</c></rc>
    <rc><c>B </c><c>   1</c></rc>
    <rc><c>B </c><c>   1</c></rc>
    <rc><c>B </c><c>   1</c></rc>
    <rc><c>B </c><c>   1</c></rc>
    <rc><c>B </c><c>   1</c></rc>
    <rc><c>B </c><c>   1</c></rc>
    <rc><c>B </c><c>   1</c></rc>
    <rc><c>B </c><c>   1</c></rc>
    <rc><c>B </c><c>   1</c></rc>
    <rc><c>B </c><c>   1</c></rc>
    <rc><c>B </c><c>   1</c></rc>
    <rc><c>B </c><c>   1</c></rc>
    <rc><c>B </c><c>   1</c></rc>
    <rc><c>B </c><c>   1</c></rc>
    <rc><c>B </c><c>   1</c></rc>
    <rc><c>B </c><c>   1</c></rc>
    <rc><c>B </c><c>   1</c></rc>
    <rc><c>B </c><c>   1</c></rc>
    <rc><c>B </c><c>   1</c></rc>
    <rc><c>C </c><c>   2</c></rc>
    <rc><c>C </c><c>   2</c></rc>
    <rc><c>C </c><c>   2</c></rc>
    <rc><c>C </c><c>   2</c></rc>
    <rc><c>C </c><c>   2</c></rc>
    <rc><c>C </c><c>   2</c></rc>
    <rc><c>C </c><c>   2</c></rc>
    <rc><c>C </c><c>   2</c></rc>
    <rc><c>C </c><c>   2</c></rc>
    <rc><c>C </c><c>   2</c></rc>
    <rc><c>C </c><c>   2</c></rc>
    <rc><c>C </c><c>   2</c></rc>
    <rc><c>C </c><c>   2</c></rc>
    <rc><c>C </c><c>   2</c></rc>
    <rc><c>C </c><c>   2</c></rc>
    <rc><c>C </c><c>   2</c></rc>
   </set>
  </array>
  <array name="atomtypes" >
   <dimension dim="1">type</dimension>
   <field type="int">atomspertype</field>
   <field type="string">element</field>
   <field>mass</field>
   <field>valence</field>
   <field type="string">pseudopotential</field>
   <set>
    <rc><c>  96</c><c>B </c><c>     10.81100000</c><c>      3.00000000</c><c>  PAW_PBE B 06Sep2000                   </c></rc>
    <rc><c>  16</c><c>C </c><c>     12.01100000</c><c>      4.00000000</c><c>  PAW_PBE C 08Apr2002                   </c></rc>
   </set>
  </array>
 </atominfo>
 <structure name="initialpos" >
  <crystal>
   <varray name="basis" >
    <v>       9.13328200       0.07032500       4.17368500 </v>
    <v>       2.70944900       8.72242400       4.17368500 </v>
    <v>       0.09471800       0.07032500      10.04129000 </v>
   </varray>
   <i name="volume">    792.71377298 </i>
   <varray name="rec_basis" >
    <v>       0.11011651      -0.03382184      -0.00080184 </v>
    <v>      -0.00052054       0.11519241      -0.00080185 </v>
    <v>      -0.04555381      -0.03382186       0.10025537 </v>
   </varray>
  </crystal>
  <varray name="positions" >
   <v>       0.16039500       0.40051500       0.40051500 </v>
   <v>       0.16039500       0.40051500       0.90051500 </v>
   <v>       0.16039500       0.90051500       0.40051500 </v>
   <v>       0.16039500       0.90051500       0.90051500 </v>
   <v>       0.66039500       0.40051500       0.40051500 </v>
   <v>       0.66039500       0.40051500       0.90051500 </v>
   <v>       0.66039500       0.90051500       0.40051500 </v>
   <v>       0.66039500       0.90051500       0.90051500 </v>
   <v>       0.40051500       0.40051500       0.16039500 </v>
   <v>       0.40051500       0.40051500       0.66039500 </v>
   <v>       0.40051500       0.90051500       0.16039500 </v>
   <v>       0.40051500       0.90051500       0.66039500 </v>
   <v>       0.90051500       0.40051500       0.16039500 </v>
   <v>       0.90051500       0.40051500       0.66039500 </v>
   <v>       0.90051500       0.90051500       0.16039500 </v>
   <v>       0.90051500       0.90051500       0.66039500 </v>
   <v>       0.40051500       0.16039500       0.40051500 </v>
   <v>       0.40051500       0.16039500       0.90051500 </v>
   <v>       0.40051500       0.66039500       0.40051500 </v>
   <v>       0.40051500       0.66039500       0.90051500 </v>
   <v>       0.90051500       0.16039500       0.40051500 </v>
   <v>       0.90051500       0.16039500       0.90051500 </v>
   <v>       0.90051500       0.66039500       0.40051500 </v>
   <v>       0.90051500       0.66039500       0.90051500 </v>
   <v>       0.33960500       0.09948500       0.09948500 </v>
   <v>       0.33960500       0.09948500       0.59948500 </v>
   <v>       0.33960500       0.59948500       0.09948500 </v>
   <v>       0.33960500       0.59948500       0.59948500 </v>
   <v>       0.83960500       0.09948500       0.09948500 </v>
   <v>       0.83960500       0.09948500       0.59948500 </v>
   <v>       0.83960500       0.59948500       0.09948500 </v>
   <v>       0.83960500       0.59948500       0.59948500 </v>
   <v>       0.09948500       0.09948500       0.33960500 </v>
   <v>       0.09948500       0.09948500       0.83960500 </v>
   <v>       0.09948500       0.59948500       0.33960500 </v>
   <v>       0.09948500       0.59948500       0.83960500 </v>
   <v>       0.59948500       0.09948500       0.33960500 </v>
   <v>       0.59948500       0.09948500       0.83960500 </v>
   <v>       0.59948500       0.59948500       0.33960500 </v>
   <v>       0.59948500       0.59948500       0.83960500 </v>
   <v>       0.09948500       0.33960500       0.09948500 </v>
   <v>       0.09948500       0.33960500       0.59948500 </v>
   <v>       0.09948500       0.83960500       0.09948500 </v>
   <v>       0.09948500       0.83960500       0.59948500 </v>
   <v>       0.59948500       0.33960500       0.09948500 </v>
   <v>       0.59948500       0.33960500       0.59948500 </v>
   <v>       0.59948500       0.83960500       0.09948500 </v>
   <v>       0.59948500       0.83960500       0.59948500 </v>
   <v>       0.33229300       0.00011500       0.00011500 </v>
   <v>       0.33229300       0.00011500       0.50011500 </v>
   <v>       0.33229300       0.50011500       0.00011500 </v>
   <v>       0.33229300       0.50011500       0.50011500 </v>
   <v>       0.83229300       0.00011500       0.00011500 </v>
   <v>       0.83229300       0.00011500       0.50011500 </v>
   <v>       0.83229300       0.50011500       0.00011500 </v>
   <v>       0.83229300       0.50011500       0.50011500 </v>
   <v>       0.00011500       0.00011500       0.33229300 </v>
   <v>       0.00011500       0.00011500       0.83229300 </v>
   <v>       0.00011500       0.50011500       0.33229300 </v>
   <v>       0.00011500       0.50011500       0.83229300 </v>
   <v>       0.50011500       0.00011500       0.33229300 </v>
   <v>       0.50011500       0.00011500       0.83229300 </v>
   <v>       0.50011500       0.50011500       0.33229300 </v>
   <v>       0.50011500       0.50011500       0.83229300 </v>
   <v>       0.00011500       0.33229300       0.00011500 </v>
   <v>       0.00011500       0.33229300       0.50011500 </v>
   <v>       0.00011500       0.83229300       0.00011500 </v>
   <v>       0.00011500       0.83229300       0.50011500 </v>
   <v>       0.50011500       0.33229300       0.00011500 </v>
   <v>       0.50011500       0.33229300       0.50011500 </v>
   <v>       0.50011500       0.83229300       0.00011500 </v>
   <v>       0.50011500       0.83229300       0.50011500 </v>
   <v>       0.16770700       0.99988500       0.99988500 </v>
   <v>       0.16770700       0.99988500       0.49988500 </v>
   <v>       0.16770700       0.49988500       0.99988500 </v>
   <v>       0.16770700       0.49988500       0.49988500 </v>
   <v>       0.66770700       0.99988500       0.99988500 </v>
   <v>       0.66770700       0.99988500       0.49988500 </v>
   <v>       0.66770700       0.49988500       0.99988500 </v>
   <v>       0.66770700       0.49988500       0.49988500 </v>
   <v>       0.99988500       0.99988500       0.16770700 </v>
   <v>       0.99988500       0.99988500       0.66770700 </v>
   <v>       0.99988500       0.49988500       0.16770700 </v>
   <v>       0.99988500       0.49988500       0.66770700 </v>
   <v>       0.49988500       0.99988500       0.16770700 </v>
   <v>       0.49988500       0.99988500       0.66770700 </v>
   <v>       0.49988500       0.49988500       0.16770700 </v>
   <v>       0.49988500       0.49988500       0.66770700 </v>
   <v>       0.99988500       0.16770700       0.99988500 </v>
   <v>       0.99988500       0.16770700       0.49988500 </v>
   <v>       0.99988500       0.66770700       0.99988500 </v>
   <v>       0.99988500       0.66770700       0.49988500 </v>
   <v>       0.49988500       0.16770700       0.99988500 </v>
   <v>       0.49988500       0.16770700       0.49988500 </v>
   <v>       0.49988500       0.66770700       0.99988500 </v>
   <v>       0.49988500       0.66770700       0.49988500 </v>
   <v>       0.31539700       0.31539700       0.31539700 </v>
   <v>       0.31539700       0.31539700       0.81539700 </v>
   <v>       0.31539700       0.81539700       0.31539700 </v>
   <v>       0.31539700       0.81539700       0.81539700 </v>
   <v>       0.81539700       0.31539700       0.31539700 </v>
   <v>       0.81539700       0.31539700       0.81539700 </v>
   <v>       0.81539700       0.81539700       0.31539700 </v>
   <v>       0.81539700       0.81539700       0.81539700 </v>
   <v>       0.18460300       0.18460300       0.18460300 </v>
   <v>       0.18460300       0.18460300       0.68460300 </v>
   <v>       0.18460300       0.68460300       0.18460300 </v>
   <v>       0.18460300       0.68460300       0.68460300 </v>
   <v>       0.68460300       0.18460300       0.18460300 </v>
   <v>       0.68460300       0.18460300       0.68460300 </v>
   <v>       0.68460300       0.68460300       0.18460300 </v>
   <v>       0.68460300       0.68460300       0.68460300 </v>
  </varray>
 </structure>
 <calculation>
  <scstep>
   <time name="dav">    3.08    3.08</time>
   <time name="total">    3.35    3.35</time>
   <energy>
    <i name="alphaZ">   1123.44528264 </i>
    <i name="ewald"> -10318.56433996 </i>
    <i name="hartreedc">   -986.53133446 </i>
    <i name="XCdc">    920.59851962 </i>
    <i name="pawpsdc">   5912.33983061 </i>
    <i name="pawaedc">  -5839.33960861 </i>
    <i name="eentropy">      0.00000000 </i>
    <i name="bandstr">   1449.38749725 </i>
    <i name="atom">   9186.75495500 </i>
    <i name="e_fr_energy">   1448.09080210 </i>
    <i name="e_wo_entrp">   1448.09080210 </i>
    <i name="e_0_energy">   1448.09080210 </i>
   </energy>
  </scstep>
  <scstep>
   <time name="dav">    3.55    3.55</time>
   <time name="total">    3.55    3.55</time>
   <energy>
    <i name="e_fr_energy">   -716.48804890 </i>
    <i name="e_wo_entrp">   -716.48804890 </i>
    <i name="e_0_energy">   -716.48804890 </i>
   </energy>
  </scstep>
  <scstep>
   <time name="dav">    3.46    3.46</time>
   <time name="total">    3.47    3.47</time>
   <energy>
    <i name="e_fr_energy">   -843.44997091 </i>
    <i name="e_wo_entrp">   -843.44997091 </i>
    <i name="e_0_energy">   -843.44997091 </i>
   </energy>
  </scstep>
  <scstep>
   <time name="dav">    3.43    3.43</time>
   <time name="total">    3.43    3.43</time>
   <energy>
    <i name="e_fr_energy">   -846.11508097 </i>
    <i name="e_wo_entrp">   -846.11508097 </i>
    <i name="e_0_energy">   -846.11508097 </i>
   </energy>
  </scstep>
  <scstep>
   <time name="dav">    3.39    3.39</time>
   <time name="total">    4.92    4.92</time>
   <energy>
    <i name="e_fr_energy">   -846.17593236 </i>
    <i name="e_wo_entrp">   -846.17593236 </i>
    <i name="e_0_energy">   -846.17593236 </i>
   </energy>
  </scstep>
  <scstep>
   <time name="diag">    0.65    0.65</time>
   <time name="diis">    2.77    2.78</time>
   <time name="orth">    0.02    0.02</time>
   <time name="total">    5.20    5.20</time>
   <energy>
    <i name="e_fr_energy">   -800.78651611 </i>
    <i name="e_wo_entrp">   -800.78651611 </i>
    <i name="e_0_energy">   -800.78651611 </i>
   </energy>
  </scstep>
  <scstep>
   <time name="diag">    0.65    0.65</time>
   <time name="diis">    2.77    2.75</time>
   <time name="orth">    0.02    0.02</time>
   <time name="total">    5.19    5.17</time>
   <energy>
    <i name="e_fr_energy">   -787.95108153 </i>
    <i name="e_wo_entrp">   -787.95108153 </i>
    <i name="e_0_energy">   -787.95108153 </i>
   </energy>
  </scstep>
  <scstep>
   <time name="diag">    0.65    0.65</time>
   <time name="diis">    2.77    2.74</time>
   <time name="orth">    0.02    0.02</time>
   <time name="total">    5.17    5.14</time>
   <energy>
    <i name="e_fr_energy">   -788.08072947 </i>
    <i name="e_wo_entrp">   -788.08072947 </i>
    <i name="e_0_energy">   -788.08072947 </i>
   </energy>
  </scstep>
  <scstep>
   <time name="diag">    0.65    0.65</time>
   <time name="diis">    2.77    2.74</time>
   <time name="orth">    0.02    0.02</time>
   <time name="total">    5.18    5.15</time>
   <energy>
    <i name="e_fr_energy">   -788.16420937 </i>
    <i name="e_wo_entrp">   -788.16420937 </i>
    <i name="e_0_energy">   -788.16420937 </i>
   </energy>
  </scstep>
  <scstep>
   <time name="diag">    0.65    0.65</time>
   <time name="diis">    2.78    2.75</time>
   <time name="orth">    0.02    0.02</time>
   <time name="total">    5.22    5.18</time>
   <energy>
    <i name="e_fr_energy">   -788.13879313 </i>
    <i name="e_wo_entrp">   -788.13879313 </i>
    <i name="e_0_energy">   -788.13879313 </i>
   </energy>
  </scstep>
  <scstep>
   <time name="diag">    0.65    0.65</time>
   <time name="diis">    2.78    2.76</time>
   <time name="orth">    0.02    0.02</time>
   <time name="total">    5.18    5.16</time>
   <energy>
    <i name="e_fr_energy">   -788.14056267 </i>
    <i name="e_wo_entrp">   -788.14056267 </i>
    <i name="e_0_energy">   -788.14056267 </i>
   </energy>
  </scstep>
  <scstep>
   <time name="diag">    0.65    0.65</time>
   <time name="diis">    2.81    2.79</time>
   <time name="orth">    0.02    0.02</time>
   <time name="total">    5.22    5.20</time>
   <energy>
    <i name="e_fr_energy">   -788.14090102 </i>
    <i name="e_wo_entrp">   -788.14090102 </i>
    <i name="e_0_energy">   -788.14090102 </i>
   </energy>
  </scstep>
  <scstep>
   <time name="diag">    0.65    0.65</time>
   <time name="diis">    2.77    2.75</time>
   <time name="orth">    0.02    0.02</time>
   <time name="total">    5.19    5.17</time>
   <energy>
    <i name="e_fr_energy">   -788.14071225 </i>
    <i name="e_wo_entrp">   -788.14071225 </i>
    <i name="e_0_energy">   -788.14071225 </i>
   </energy>
  </scstep>
  <scstep>
   <time name="diag">    0.65    0.65</time>
   <time name="diis">    2.77    2.74</time>
   <time name="orth">    0.02    0.02</time>
   <time name="total">    5.19    5.16</time>
   <energy>
    <i name="e_fr_energy">   -788.14065926 </i>
    <i name="e_wo_entrp">   -788.14065926 </i>
    <i name="e_0_energy">   -788.14065926 </i>
   </energy>
  </scstep>
  <scstep>
   <time name="diag">    0.65    0.65</time>
   <time name="diis">    2.76    2.74</time>
   <time name="orth">    0.02    0.02</time>
   <time name="total">    5.17    5.15</time>
   <energy>
    <i name="e_fr_energy">   -788.14065746 </i>
    <i name="e_wo_entrp">   -788.14065746 </i>
    <i name="e_0_energy">   -788.14065746 </i>
   </energy>
  </scstep>
  <scstep>
   <time name="diag">    0.65    0.65</time>
   <time name="diis">    2.81    2.77</time>
   <time name="orth">    0.02    0.02</time>
   <time name="total">    5.23    5.20</time>
   <energy>
    <i name="e_fr_energy">   -788.14069718 </i>
    <i name="e_wo_entrp">   -788.14069718 </i>
    <i name="e_0_energy">   -788.14069718 </i>
   </energy>
  </scstep>
  <scstep>
   <time name="diag">    0.65    0.65</time>
   <time name="diis">    2.34    2.32</time>
   <time name="orth">    0.02    0.02</time>
   <time name="total">    4.76    4.73</time>
   <energy>
    <i name="e_fr_energy">   -788.14068869 </i>
    <i name="e_wo_entrp">   -788.14068869 </i>
    <i name="e_0_energy">   -788.14068869 </i>
   </energy>
  </scstep>
  <scstep>
   <time name="diag">    0.65    0.65</time>
   <time name="diis">    1.89    1.87</time>
   <time name="orth">    0.02    0.02</time>
   <time name="total">    4.32    4.31</time>
   <energy>
    <i name="e_fr_energy">   -788.14068491 </i>
    <i name="e_wo_entrp">   -788.14068491 </i>
    <i name="e_0_energy">   -788.14068491 </i>
   </energy>
  </scstep>
  <scstep>
   <time name="diag">    0.65    0.65</time>
   <time name="diis">    1.78    1.78</time>
   <time name="orth">    0.02    0.02</time>
   <time name="total">    4.21    4.20</time>
   <energy>
    <i name="e_fr_energy">   -788.14067688 </i>
    <i name="e_wo_entrp">   -788.14067688 </i>
    <i name="e_0_energy">   -788.14067688 </i>
   </energy>
  </scstep>
  <scstep>
   <time name="diag">    0.65    0.65</time>
   <time name="diis">    1.74    1.74</time>
   <time name="orth">    0.02    0.02</time>
   <time name="total">    2.66    2.65</time>
   <energy>
    <i name="alphaZ">   1123.44528264 </i>
    <i name="ewald"> -10318.56433996 </i>
    <i name="hartreedc">  -1446.10476877 </i>
    <i name="XCdc">    953.45470912 </i>
    <i name="pawpsdc">  38751.69889678 </i>
    <i name="pawaedc"> -38690.88678792 </i>
    <i name="eentropy">      0.00000000 </i>
    <i name="bandstr">   -347.93862437 </i>
    <i name="atom">   9186.75495500 </i>
    <i name="e_fr_energy">   -788.14067747 </i>
    <i name="e_wo_entrp">   -788.14067747 </i>
    <i name="e_0_energy">   -788.14067747 </i>
   </energy>
  </scstep>
  <structure>
   <crystal>
    <varray name="basis" >
     <v>       9.13328200       0.07032500       4.17368500 </v>
     <v>       2.70944900       8.72242400       4.17368500 </v>
     <v>       0.09471800       0.07032500      10.04129000 </v>
    </varray>
    <i name="volume">    792.71377298 </i>
    <varray name="rec_basis" >
     <v>       0.11011651      -0.03382184      -0.00080184 </v>
     <v>      -0.00052054       0.11519241      -0.00080185 </v>
     <v>      -0.04555381      -0.03382186       0.10025537 </v>
    </varray>
   </crystal>
   <varray name="positions" >
    <v>       0.16039500       0.40051500       0.40051500 </v>
    <v>       0.16039500       0.40051500       0.90051500 </v>
    <v>       0.16039500       0.90051500       0.40051500 </v>
    <v>       0.16039500       0.90051500       0.90051500 </v>
    <v>       0.66039500       0.40051500       0.40051500 </v>
    <v>       0.66039500       0.40051500       0.90051500 </v>
    <v>       0.66039500       0.90051500       0.40051500 </v>
    <v>       0.66039500       0.90051500       0.90051500 </v>
    <v>       0.40051500       0.40051500       0.16039500 </v>
    <v>       0.40051500       0.40051500       0.66039500 </v>
    <v>       0.40051500       0.90051500       0.16039500 </v>
    <v>       0.40051500       0.90051500       0.66039500 </v>
    <v>       0.90051500       0.40051500       0.16039500 </v>
    <v>       0.90051500       0.40051500       0.66039500 </v>
    <v>       0.90051500       0.90051500       0.16039500 </v>
    <v>       0.90051500       0.90051500       0.66039500 </v>
    <v>       0.40051500       0.16039500       0.40051500 </v>
    <v>       0.40051500       0.16039500       0.90051500 </v>
    <v>       0.40051500       0.66039500       0.40051500 </v>
    <v>       0.40051500       0.66039500       0.90051500 </v>
    <v>       0.90051500       0.16039500       0.40051500 </v>
    <v>       0.90051500       0.16039500       0.90051500 </v>
    <v>       0.90051500       0.66039500       0.40051500 </v>
    <v>       0.90051500       0.66039500       0.90051500 </v>
    <v>       0.33960500       0.09948500       0.09948500 </v>
    <v>       0.33960500       0.09948500       0.59948500 </v>
    <v>       0.33960500       0.59948500       0.09948500 </v>
    <v>       0.33960500       0.59948500       0.59948500 </v>
    <v>       0.83960500       0.09948500       0.09948500 </v>
    <v>       0.83960500       0.09948500       0.59948500 </v>
    <v>       0.83960500       0.59948500       0.09948500 </v>
    <v>       0.83960500       0.59948500       0.59948500 </v>
    <v>       0.09948500       0.09948500       0.33960500 </v>
    <v>       0.09948500       0.09948500       0.83960500 </v>
    <v>       0.09948500       0.59948500       0.33960500 </v>
    <v>       0.09948500       0.59948500       0.83960500 </v>
    <v>       0.59948500       0.09948500       0.33960500 </v>
    <v>       0.59948500       0.09948500       0.83960500 </v>
    <v>       0.59948500       0.59948500       0.33960500 </v>
    <v>       0.59948500       0.59948500       0.83960500 </v>
    <v>       0.09948500       0.33960500       0.09948500 </v>
    <v>       0.09948500       0.33960500       0.59948500 </v>
    <v>       0.09948500       0.83960500       0.09948500 </v>
    <v>       0.09948500       0.83960500       0.59948500 </v>
    <v>       0.59948500       0.33960500       0.09948500 </v>
    <v>       0.59948500       0.33960500       0.59948500 </v>
    <v>       0.59948500       0.83960500       0.09948500 </v>
    <v>       0.59948500       0.83960500       0.59948500 </v>
    <v>       0.33229300       0.00011500       0.00011500 </v>
    <v>       0.33229300       0.00011500       0.50011500 </v>
    <v>       0.33229300       0.50011500       0.00011500 </v>
    <v>       0.33229300       0.50011500       0.50011500 </v>
    <v>       0.83229300       0.00011500       0.00011500 </v>
    <v>       0.83229300       0.00011500       0.50011500 </v>
    <v>       0.83229300       0.50011500       0.00011500 </v>
    <v>       0.83229300       0.50011500       0.50011500 </v>
    <v>       0.00011500       0.00011500       0.33229300 </v>
    <v>       0.00011500       0.00011500       0.83229300 </v>
    <v>       0.00011500       0.50011500       0.33229300 </v>
    <v>       0.00011500       0.50011500       0.83229300 </v>
    <v>       0.50011500       0.00011500       0.33229300 </v>
    <v>       0.50011500       0.00011500       0.83229300 </v>
    <v>       0.50011500       0.50011500       0.33229300 </v>
    <v>       0.50011500       0.50011500       0.83229300 </v>
    <v>       0.00011500       0.33229300       0.00011500 </v>
    <v>       0.00011500       0.33229300       0.50011500 </v>
    <v>       0.00011500       0.83229300       0.00011500 </v>
    <v>       0.00011500       0.83229300       0.50011500 </v>
    <v>       0.50011500       0.33229300       0.00011500 </v>
    <v>       0.50011500       0.33229300       0.50011500 </v>
    <v>       0.50011500       0.83229300       0.00011500 </v>
    <v>       0.50011500       0.83229300       0.50011500 </v>
    <v>       0.16770700       0.99988500       0.99988500 </v>
    <v>       0.16770700       0.99988500       0.49988500 </v>
    <v>       0.16770700       0.49988500       0.99988500 </v>
    <v>       0.16770700       0.49988500       0.49988500 </v>
    <v>       0.66770700       0.99988500       0.99988500 </v>
    <v>       0.66770700       0.99988500       0.49988500 </v>
    <v>       0.66770700       0.49988500       0.99988500 </v>
    <v>       0.66770700       0.49988500       0.49988500 </v>
    <v>       0.99988500       0.99988500       0.16770700 </v>
    <v>       0.99988500       0.99988500       0.66770700 </v>
    <v>       0.99988500       0.49988500       0.16770700 </v>
    <v>       0.99988500       0.49988500       0.66770700 </v>
    <v>       0.49988500       0.99988500       0.16770700 </v>
    <v>       0.49988500       0.99988500       0.66770700 </v>
    <v>       0.49988500       0.49988500       0.16770700 </v>
    <v>       0.49988500       0.49988500       0.66770700 </v>
    <v>       0.99988500       0.16770700       0.99988500 </v>
    <v>       0.99988500       0.16770700       0.49988500 </v>
    <v>       0.99988500       0.66770700       0.99988500 </v>
    <v>       0.99988500       0.66770700       0.49988500 </v>
    <v>       0.49988500       0.16770700       0.99988500 </v>
    <v>       0.49988500       0.16770700       0.49988500 </v>
    <v>       0.49988500       0.66770700       0.99988500 </v>
    <v>       0.49988500       0.66770700       0.49988500 </v>
    <v>       0.31539700       0.31539700       0.31539700 </v>
    <v>       0.31539700       0.31539700       0.81539700 </v>
    <v>       0.31539700       0.81539700       0.31539700 </v>
    <v>       0.31539700       0.81539700       0.81539700 </v>
    <v>       0.81539700       0.31539700       0.31539700 </v>
    <v>       0.81539700       0.31539700       0.81539700 </v>
    <v>       0.81539700       0.81539700       0.31539700 </v>
    <v>       0.81539700       0.81539700       0.81539700 </v>
    <v>       0.18460300       0.18460300       0.18460300 </v>
    <v>       0.18460300       0.18460300       0.68460300 </v>
    <v>       0.18460300       0.68460300       0.18460300 </v>
    <v>       0.18460300       0.68460300       0.68460300 </v>
    <v>       0.68460300       0.18460300       0.18460300 </v>
    <v>       0.68460300       0.18460300       0.68460300 </v>
    <v>       0.68460300       0.68460300       0.18460300 </v>
    <v>       0.68460300       0.68460300       0.68460300 </v>
   </varray>
  </structure>
  <varray name="forces" >
   <v>      -0.14959229      -0.07717618      -0.18046194 </v>
   <v>      -0.14959229      -0.07717618      -0.18046194 </v>
   <v>      -0.14959229      -0.07717618      -0.18046194 </v>
   <v>      -0.14959229      -0.07717618      -0.18046194 </v>
   <v>      -0.14959229      -0.07717618      -0.18046194 </v>
   <v>      -0.14959229      -0.07717618      -0.18046194 </v>
   <v>      -0.14959229      -0.07717618      -0.18046194 </v>
   <v>      -0.14959229      -0.07717618      -0.18046194 </v>
   <v>      -0.10394663      -0.07717618      -0.21009394 </v>
   <v>      -0.10394663      -0.07717618      -0.21009394 </v>
   <v>      -0.10394663      -0.07717618      -0.21009394 </v>
   <v>      -0.10394663      -0.07717618      -0.21009394 </v>
   <v>      -0.10394663      -0.07717618      -0.21009394 </v>
   <v>      -0.10394663      -0.07717618      -0.21009394 </v>
   <v>      -0.10394663      -0.07717618      -0.21009394 </v>
   <v>      -0.10394663      -0.07717618      -0.21009394 </v>
   <v>      -0.11715128      -0.12087015      -0.18046194 </v>
   <v>      -0.11715128      -0.12087015      -0.18046194 </v>
   <v>      -0.11715128      -0.12087015      -0.18046194 </v>
   <v>      -0.11715128      -0.12087015      -0.18046194 </v>
   <v>      -0.11715128      -0.12087015      -0.18046194 </v>
   <v>      -0.11715128      -0.12087015      -0.18046194 </v>
   <v>      -0.11715128      -0.12087015      -0.18046194 </v>
   <v>      -0.11715128      -0.12087015      -0.18046194 </v>
   <v>       0.14959229       0.07717618       0.18046194 </v>
   <v>       0.14959229       0.07717618       0.18046194 </v>
   <v>       0.14959229       0.07717618       0.18046194 </v>
   <v>       0.14959229       0.07717618       0.18046194 </v>
   <v>       0.14959229       0.07717618       0.18046194 </v>
   <v>       0.14959229       0.07717618       0.18046194 </v>
   <v>       0.14959229       0.07717618       0.18046194 </v>
   <v>       0.14959229       0.07717618       0.18046194 </v>
   <v>       0.10394663       0.07717618       0.21009394 </v>
   <v>       0.10394663       0.07717618       0.21009394 </v>
   <v>       0.10394663       0.07717618       0.21009394 </v>
   <v>       0.10394663       0.07717618       0.21009394 </v>
   <v>       0.10394663       0.07717618       0.21009394 </v>
   <v>       0.10394663       0.07717618       0.21009394 </v>
   <v>       0.10394663       0.07717618       0.21009394 </v>
   <v>       0.10394663       0.07717618       0.21009394 </v>
   <v>       0.11715128       0.12087015       0.18046194 </v>
   <v>       0.11715128       0.12087015       0.18046194 </v>
   <v>       0.11715128       0.12087015       0.18046194 </v>
   <v>       0.11715128       0.12087015       0.18046194 </v>
   <v>       0.11715128       0.12087015       0.18046194 </v>
   <v>       0.11715128       0.12087015       0.18046194 </v>
   <v>       0.11715128       0.12087015       0.18046194 </v>
   <v>       0.11715128       0.12087015       0.18046194 </v>
   <v>      -0.15282046      -0.07446776      -0.17790677 </v>
   <v>      -0.15282046      -0.07446776      -0.17790677 </v>
   <v>      -0.15282046      -0.07446776      -0.17790677 </v>
   <v>      -0.15282046      -0.07446776      -0.17790677 </v>
   <v>      -0.15282046      -0.07446776      -0.17790677 </v>
   <v>      -0.15282046      -0.07446776      -0.17790677 </v>
   <v>      -0.15282046      -0.07446776      -0.17790677 </v>
   <v>      -0.15282046      -0.07446776      -0.17790677 </v>
   <v>      -0.10029872      -0.07446776      -0.21200254 </v>
   <v>      -0.10029872      -0.07446776      -0.21200254 </v>
   <v>      -0.10029872      -0.07446776      -0.21200254 </v>
   <v>      -0.10029872      -0.07446776      -0.21200254 </v>
   <v>      -0.10029872      -0.07446776      -0.21200254 </v>
   <v>      -0.10029872      -0.07446776      -0.21200254 </v>
   <v>      -0.10029872      -0.07446776      -0.21200254 </v>
   <v>      -0.10029872      -0.07446776      -0.21200254 </v>
   <v>      -0.11549253      -0.12474381      -0.17790677 </v>
   <v>      -0.11549253      -0.12474381      -0.17790677 </v>
   <v>      -0.11549253      -0.12474381      -0.17790677 </v>
   <v>      -0.11549253      -0.12474381      -0.17790677 </v>
   <v>      -0.11549253      -0.12474381      -0.17790677 </v>
   <v>      -0.11549253      -0.12474381      -0.17790677 </v>
   <v>      -0.11549253      -0.12474381      -0.17790677 </v>
   <v>      -0.11549253      -0.12474381      -0.17790677 </v>
   <v>       0.15282046       0.07446776       0.17790677 </v>
   <v>       0.15282046       0.07446776       0.17790677 </v>
   <v>       0.15282046       0.07446776       0.17790677 </v>
   <v>       0.15282046       0.07446776       0.17790677 </v>
   <v>       0.15282046       0.07446776       0.17790677 </v>
   <v>       0.15282046       0.07446776       0.17790677 </v>
   <v>       0.15282046       0.07446776       0.17790677 </v>
   <v>       0.15282046       0.07446776       0.17790677 </v>
   <v>       0.10029872       0.07446776       0.21200254 </v>
   <v>       0.10029872       0.07446776       0.21200254 </v>
   <v>       0.10029872       0.07446776       0.21200254 </v>
   <v>       0.10029872       0.07446776       0.21200254 </v>
   <v>       0.10029872       0.07446776       0.21200254 </v>
   <v>       0.10029872       0.07446776       0.21200254 </v>
   <v>       0.10029872       0.07446776       0.21200254 </v>
   <v>       0.10029872       0.07446776       0.21200254 </v>
   <v>       0.11549253       0.12474381       0.17790677 </v>
   <v>       0.11549253       0.12474381       0.17790677 </v>
   <v>       0.11549253       0.12474381       0.17790677 </v>
   <v>       0.11549253       0.12474381       0.17790677 </v>
   <v>       0.11549253       0.12474381       0.17790677 </v>
   <v>       0.11549253       0.12474381       0.17790677 </v>
   <v>       0.11549253       0.12474381       0.17790677 </v>
   <v>       0.11549253       0.12474381       0.17790677 </v>
   <v>      -0.18946670      -0.14067137      -0.29185789 </v>
   <v>      -0.18946670      -0.14067137      -0.29185789 </v>
   <v>      -0.18946670      -0.14067137      -0.29185789 </v>
   <v>      -0.18946670      -0.14067137      -0.29185789 </v>
   <v>      -0.18946670      -0.14067137      -0.29185789 </v>
   <v>      -0.18946670      -0.14067137      -0.29185789 </v>
   <v>      -0.18946670      -0.14067137      -0.29185789 </v>
   <v>      -0.18946670      -0.14067137      -0.29185789 </v>
   <v>       0.18946670       0.14067137       0.29185789 </v>
   <v>       0.18946670       0.14067137       0.29185789 </v>
   <v>       0.18946670       0.14067137       0.29185789 </v>
   <v>       0.18946670       0.14067137       0.29185789 </v>
   <v>       0.18946670       0.14067137       0.29185789 </v>
   <v>       0.18946670       0.14067137       0.29185789 </v>
   <v>       0.18946670       0.14067137       0.29185789 </v>
   <v>       0.18946670       0.14067137       0.29185789 </v>
  </varray>
  <varray name="stress" >
   <v>     256.69652923      -7.30289203     -15.15162972 </v>
   <v>      -7.30289203     261.11051836     -11.24945435 </v>
   <v>     -15.15162972     -11.24945435     243.19270614 </v>
  </varray>
  <energy>
   <i name="e_fr_energy">   -788.14067747 </i>
   <i name="e_wo_entrp">   -788.14067747 </i>
   <i name="e_0_energy">   -788.14067747 </i>
  </energy>
  <time name="totalsc">  108.32  108.07</time>
 </calculation>
 <calculation>
  <scstep>
   <time name="dav">    3.25    3.25</time>
   <time name="total">    5.03    5.03</time>
   <energy>
    <i name="alphaZ">   1123.44528264 </i>
    <i name="ewald"> -10377.83565848 </i>
    <i name="hartreedc">  -1407.15345857 </i>
    <i name="XCdc">    952.54641434 </i>
    <i name="pawpsdc">  38751.63527012 </i>
    <i name="pawaedc"> -38690.82311706 </i>
    <i name="eentropy">      0.00000000 </i>
    <i name="bandstr">   -327.00383566 </i>
    <i name="atom">   9186.75495500 </i>
    <i name="e_fr_energy">   -788.43414766 </i>
    <i name="e_wo_entrp">   -788.43414766 </i>
    <i name="e_0_energy">   -788.43414766 </i>
   </energy>
  </scstep>
  <scstep>
   <time name="diag">    0.65    0.65</time>
   <time name="diis">    2.76    2.74</time>
   <time name="orth">    0.02    0.02</time>
   <time name="total">    5.18    5.16</time>
   <energy>
    <i name="e_fr_energy">   -788.35530425 </i>
    <i name="e_wo_entrp">   -788.35530425 </i>
    <i name="e_0_energy">   -788.35530425 </i>
   </energy>
  </scstep>
  <scstep>
   <time name="diag">    0.65    0.65</time>
   <time name="diis">    2.77    2.74</time>
   <time name="orth">    0.02    0.02</time>
   <time name="total">    5.18    5.15</time>
   <energy>
    <i name="e_fr_energy">   -788.35356228 </i>
    <i name="e_wo_entrp">   -788.35356228 </i>
    <i name="e_0_energy">   -788.35356228 </i>
   </energy>
  </scstep>
  <scstep>
   <time name="diag">    0.65    0.65</time>
   <time name="diis">    2.79    2.77</time>
   <time name="orth">    0.02    0.02</time>
   <time name="total">    5.20    5.18</time>
   <energy>
    <i name="e_fr_energy">   -788.35210761 </i>
    <i name="e_wo_entrp">   -788.35210761 </i>
    <i name="e_0_energy">   -788.35210761 </i>
   </energy>
  </scstep>
  <scstep>
   <time name="diag">    0.65    0.65</time>
   <time name="diis">    2.79    2.77</time>
   <time name="orth">    0.02    0.02</time>
   <time name="total">    5.18    5.16</time>
   <energy>
    <i name="e_fr_energy">   -788.35303587 </i>
    <i name="e_wo_entrp">   -788.35303587 </i>
    <i name="e_0_energy">   -788.35303587 </i>
   </energy>
  </scstep>
  <scstep>
   <time name="diag">    0.65    0.65</time>
   <time name="diis">    2.78    2.77</time>
   <time name="orth">    0.02    0.02</time>
   <time name="total">    5.19    5.17</time>
   <energy>
    <i name="e_fr_energy">   -788.35250601 </i>
    <i name="e_wo_entrp">   -788.35250601 </i>
    <i name="e_0_energy">   -788.35250601 </i>
   </energy>
  </scstep>
  <scstep>
   <time name="diag">    0.65    0.65</time>
   <time name="diis">    2.80    2.78</time>
   <time name="orth">    0.02    0.02</time>
   <time name="total">    5.22    5.20</time>
   <energy>
    <i name="e_fr_energy">   -788.35237490 </i>
    <i name="e_wo_entrp">   -788.35237490 </i>
    <i name="e_0_energy">   -788.35237490 </i>
   </energy>
  </scstep>
  <scstep>
   <time name="diag">    0.65    0.65</time>
   <time name="diis">    2.79    2.77</time>
   <time name="orth">    0.02    0.02</time>
   <time name="total">    5.20    5.18</time>
   <energy>
    <i name="e_fr_energy">   -788.35254835 </i>
    <i name="e_wo_entrp">   -788.35254835 </i>
    <i name="e_0_energy">   -788.35254835 </i>
   </energy>
  </scstep>
  <scstep>
   <time name="diag">    0.65    0.65</time>
   <time name="diis">    2.23    2.22</time>
   <time name="orth">    0.02    0.02</time>
   <time name="total">    4.65    4.63</time>
   <energy>
    <i name="e_fr_energy">   -788.35247856 </i>
    <i name="e_wo_entrp">   -788.35247856 </i>
    <i name="e_0_energy">   -788.35247856 </i>
   </energy>
  </scstep>
  <scstep>
   <time name="diag">    0.65    0.65</time>
   <time name="diis">    1.88    1.87</time>
   <time name="orth">    0.02    0.02</time>
   <time name="total">    4.30    4.29</time>
   <energy>
    <i name="e_fr_energy">   -788.35246492 </i>
    <i name="e_wo_entrp">   -788.35246492 </i>
    <i name="e_0_energy">   -788.35246492 </i>
   </energy>
  </scstep>
  <scstep>
   <time name="diag">    0.65    0.65</time>
   <time name="diis">    1.70    1.69</time>
   <time name="orth">    0.02    0.02</time>
   <time name="total">    4.10    4.09</time>
   <energy>
    <i name="e_fr_energy">   -788.35246189 </i>
    <i name="e_wo_entrp">   -788.35246189 </i>
    <i name="e_0_energy">   -788.35246189 </i>
   </energy>
  </scstep>
  <scstep>
   <time name="diag">    0.65    0.65</time>
   <time name="diis">    1.51    1.51</time>
   <time name="orth">    0.02    0.02</time>
   <time name="total">    3.92    3.92</time>
   <energy>
    <i name="e_fr_energy">   -788.35245953 </i>
    <i name="e_wo_entrp">   -788.35245953 </i>
    <i name="e_0_energy">   -788.35245953 </i>
   </energy>
  </scstep>
  <scstep>
   <time name="diag">    0.65    0.65</time>
   <time name="diis">    1.39    1.39</time>
   <time name="orth">    0.02    0.02</time>
   <time name="total">    2.31    2.30</time>
   <energy>
    <i name="alphaZ">   1123.44528264 </i>
    <i name="ewald"> -10377.83565848 </i>
    <i name="hartreedc">  -1397.16490405 </i>
    <i name="XCdc">    952.22796004 </i>
    <i name="pawpsdc">  38344.62489974 </i>
    <i name="pawaedc"> -38283.68718336 </i>
    <i name="eentropy">      0.00000000 </i>
    <i name="bandstr">   -336.71781194 </i>
    <i name="atom">   9186.75495500 </i>
    <i name="e_fr_energy">   -788.35246040 </i>
    <i name="e_wo_entrp">   -788.35246040 </i>
    <i name="e_0_energy">   -788.35246040 </i>
   </energy>
  </scstep>
  <structure>
   <crystal>
    <varray name="basis" >
     <v>       9.12566181       0.04621589       4.13473912 </v>
     <v>       2.68416630       8.72210409       4.13473915 </v>
     <v>       0.06224609       0.04621596      10.01847718 </v>
    </varray>
    <i name="volume">    792.71377298 </i>
    <varray name="rec_basis" >
     <v>       0.10999066      -0.03359837      -0.00052839 </v>
     <v>      -0.00034303       0.11500729      -0.00052841 </v>
     <v>      -0.04525282      -0.03359839       0.10025172 </v>
    </varray>
   </crystal>
   <varray name="positions" >
    <v>       0.15973322       0.40009685       0.40009685 </v>
    <v>       0.15973322       0.40009685       0.90009685 </v>
    <v>       0.15973322       0.90009685       0.40009685 </v>
    <v>       0.15973322       0.90009685       0.90009685 </v>
    <v>       0.65973322       0.40009685       0.40009685 </v>
    <v>       0.65973322       0.40009685       0.90009685 </v>
    <v>       0.65973322       0.90009685       0.40009685 </v>
    <v>       0.65973322       0.90009685       0.90009685 </v>
    <v>       0.40009685       0.40009685       0.15973322 </v>
    <v>       0.40009685       0.40009685       0.65973322 </v>
    <v>       0.40009685       0.90009685       0.15973322 </v>
    <v>       0.40009685       0.90009685       0.65973322 </v>
    <v>       0.90009685       0.40009685       0.15973322 </v>
    <v>       0.90009685       0.40009685       0.65973322 </v>
    <v>       0.90009685       0.90009685       0.15973322 </v>
    <v>       0.90009685       0.90009685       0.65973322 </v>
    <v>       0.40009685       0.15973322       0.40009685 </v>
    <v>       0.40009685       0.15973322       0.90009685 </v>
    <v>       0.40009685       0.65973322       0.40009685 </v>
    <v>       0.40009685       0.65973322       0.90009685 </v>
    <v>       0.90009685       0.15973322       0.40009685 </v>
    <v>       0.90009685       0.15973322       0.90009685 </v>
    <v>       0.90009685       0.65973322       0.40009685 </v>
    <v>       0.90009685       0.65973322       0.90009685 </v>
    <v>       0.34026678       0.09990315       0.09990315 </v>
    <v>       0.34026678       0.09990315       0.59990315 </v>
    <v>       0.34026678       0.59990315       0.09990315 </v>
    <v>       0.34026678       0.59990315       0.59990315 </v>
    <v>       0.84026678       0.09990315       0.09990315 </v>
    <v>       0.84026678       0.09990315       0.59990315 </v>
    <v>       0.84026678       0.59990315       0.09990315 </v>
    <v>       0.84026678       0.59990315       0.59990315 </v>
    <v>       0.09990315       0.09990315       0.34026678 </v>
    <v>       0.09990315       0.09990315       0.84026678 </v>
    <v>       0.09990315       0.59990315       0.34026678 </v>
    <v>       0.09990315       0.59990315       0.84026678 </v>
    <v>       0.59990315       0.09990315       0.34026678 </v>
    <v>       0.59990315       0.09990315       0.84026678 </v>
    <v>       0.59990315       0.59990315       0.34026678 </v>
    <v>       0.59990315       0.59990315       0.84026678 </v>
    <v>       0.09990315       0.34026678       0.09990315 </v>
    <v>       0.09990315       0.34026678       0.59990315 </v>
    <v>       0.09990315       0.84026678       0.09990315 </v>
    <v>       0.09990315       0.84026678       0.59990315 </v>
    <v>       0.59990315       0.34026678       0.09990315 </v>
    <v>       0.59990315       0.34026678       0.59990315 </v>
    <v>       0.59990315       0.84026678       0.09990315 </v>
    <v>       0.59990315       0.84026678       0.59990315 </v>
    <v>       0.33160956      -0.00028811      -0.00028811 </v>
    <v>       0.33160956      -0.00028811       0.49971189 </v>
    <v>       0.33160956       0.49971189      -0.00028811 </v>
    <v>       0.33160956       0.49971189       0.49971189 </v>
    <v>       0.83160956      -0.00028811      -0.00028811 </v>
    <v>       0.83160956      -0.00028811       0.49971189 </v>
    <v>       0.83160956       0.49971189      -0.00028811 </v>
    <v>       0.83160956       0.49971189       0.49971189 </v>
    <v>      -0.00028811      -0.00028811       0.33160956 </v>
    <v>      -0.00028811      -0.00028811       0.83160956 </v>
    <v>      -0.00028811       0.49971189       0.33160956 </v>
    <v>      -0.00028811       0.49971189       0.83160956 </v>
    <v>       0.49971189      -0.00028811       0.33160956 </v>
    <v>       0.49971189      -0.00028811       0.83160956 </v>
    <v>       0.49971189       0.49971189       0.33160956 </v>
    <v>       0.49971189       0.49971189       0.83160956 </v>
    <v>      -0.00028811       0.33160956      -0.00028811 </v>
    <v>      -0.00028811       0.33160956       0.49971189 </v>
    <v>      -0.00028811       0.83160956      -0.00028811 </v>
    <v>      -0.00028811       0.83160956       0.49971189 </v>
    <v>       0.49971189       0.33160956      -0.00028811 </v>
    <v>       0.49971189       0.33160956       0.49971189 </v>
    <v>       0.49971189       0.83160956      -0.00028811 </v>
    <v>       0.49971189       0.83160956       0.49971189 </v>
    <v>       0.16839044       0.00028811       0.00028811 </v>
    <v>       0.16839044       0.00028811       0.50028811 </v>
    <v>       0.16839044       0.50028811       0.00028811 </v>
    <v>       0.16839044       0.50028811       0.50028811 </v>
    <v>       0.66839044       0.00028811       0.00028811 </v>
    <v>       0.66839044       0.00028811       0.50028811 </v>
    <v>       0.66839044       0.50028811       0.00028811 </v>
    <v>       0.66839044       0.50028811       0.50028811 </v>
    <v>       0.00028811       0.00028811       0.16839044 </v>
    <v>       0.00028811       0.00028811       0.66839044 </v>
    <v>       0.00028811       0.50028811       0.16839044 </v>
    <v>       0.00028811       0.50028811       0.66839044 </v>
    <v>       0.50028811       0.00028811       0.16839044 </v>
    <v>       0.50028811       0.00028811       0.66839044 </v>
    <v>       0.50028811       0.50028811       0.16839044 </v>
    <v>       0.50028811       0.50028811       0.66839044 </v>
    <v>       0.00028811       0.16839044       0.00028811 </v>
    <v>       0.00028811       0.16839044       0.50028811 </v>
    <v>       0.00028811       0.66839044       0.00028811 </v>
    <v>       0.00028811       0.66839044       0.50028811 </v>
    <v>       0.50028811       0.16839044       0.00028811 </v>
    <v>       0.50028811       0.16839044       0.50028811 </v>
    <v>       0.50028811       0.66839044       0.00028811 </v>
    <v>       0.50028811       0.66839044       0.50028811 </v>
    <v>       0.31463131       0.31463131       0.31463131 </v>
    <v>       0.31463131       0.31463131       0.81463131 </v>
    <v>       0.31463131       0.81463131       0.31463131 </v>
    <v>       0.31463131       0.81463131       0.81463131 </v>
    <v>       0.81463131       0.31463131       0.31463131 </v>
    <v>       0.81463131       0.31463131       0.81463131 </v>
    <v>       0.81463131       0.81463131       0.31463131 </v>
    <v>       0.81463131       0.81463131       0.81463131 </v>
    <v>       0.18536869       0.18536869       0.18536869 </v>
    <v>       0.18536869       0.18536869       0.68536869 </v>
    <v>       0.18536869       0.68536869       0.18536869 </v>
    <v>       0.18536869       0.68536869       0.68536869 </v>
    <v>       0.68536869       0.18536869       0.18536869 </v>
    <v>       0.68536869       0.18536869       0.68536869 </v>
    <v>       0.68536869       0.68536869       0.18536869 </v>
    <v>       0.68536869       0.68536869       0.68536869 </v>
   </varray>
  </structure>
  <varray name="forces" >
   <v>      -0.01935019      -0.02050733      -0.03886201 </v>
   <v>      -0.01935019      -0.02050733      -0.03886201 </v>
   <v>      -0.01935019      -0.02050733      -0.03886201 </v>
   <v>      -0.01935019      -0.02050733      -0.03886201 </v>
   <v>      -0.01935019      -0.02050733      -0.03886201 </v>
   <v>      -0.01935019      -0.02050733      -0.03886201 </v>
   <v>      -0.01935019      -0.02050733      -0.03886201 </v>
   <v>      -0.01935019      -0.02050733      -0.03886201 </v>
   <v>      -0.02762080      -0.02050733      -0.03349294 </v>
   <v>      -0.02762080      -0.02050733      -0.03349294 </v>
   <v>      -0.02762080      -0.02050733      -0.03349294 </v>
   <v>      -0.02762080      -0.02050733      -0.03349294 </v>
   <v>      -0.02762080      -0.02050733      -0.03349294 </v>
   <v>      -0.02762080      -0.02050733      -0.03349294 </v>
   <v>      -0.02762080      -0.02050733      -0.03349294 </v>
   <v>      -0.02762080      -0.02050733      -0.03349294 </v>
   <v>      -0.02522823      -0.01259035      -0.03886201 </v>
   <v>      -0.02522823      -0.01259035      -0.03886201 </v>
   <v>      -0.02522823      -0.01259035      -0.03886201 </v>
   <v>      -0.02522823      -0.01259035      -0.03886201 </v>
   <v>      -0.02522823      -0.01259035      -0.03886201 </v>
   <v>      -0.02522823      -0.01259035      -0.03886201 </v>
   <v>      -0.02522823      -0.01259035      -0.03886201 </v>
   <v>      -0.02522823      -0.01259035      -0.03886201 </v>
   <v>       0.01935019       0.02050733       0.03886201 </v>
   <v>       0.01935019       0.02050733       0.03886201 </v>
   <v>       0.01935019       0.02050733       0.03886201 </v>
   <v>       0.01935019       0.02050733       0.03886201 </v>
   <v>       0.01935019       0.02050733       0.03886201 </v>
   <v>       0.01935019       0.02050733       0.03886201 </v>
   <v>       0.01935019       0.02050733       0.03886201 </v>
   <v>       0.01935019       0.02050733       0.03886201 </v>
   <v>       0.02762080       0.02050733       0.03349294 </v>
   <v>       0.02762080       0.02050733       0.03349294 </v>
   <v>       0.02762080       0.02050733       0.03349294 </v>
   <v>       0.02762080       0.02050733       0.03349294 </v>
   <v>       0.02762080       0.02050733       0.03349294 </v>
   <v>       0.02762080       0.02050733       0.03349294 </v>
   <v>       0.02762080       0.02050733       0.03349294 </v>
   <v>       0.02762080       0.02050733       0.03349294 </v>
   <v>       0.02522823       0.01259035       0.03886201 </v>
   <v>       0.02522823       0.01259035       0.03886201 </v>
   <v>       0.02522823       0.01259035       0.03886201 </v>
   <v>       0.02522823       0.01259035       0.03886201 </v>
   <v>       0.02522823       0.01259035       0.03886201 </v>
   <v>       0.02522823       0.01259035       0.03886201 </v>
   <v>       0.02522823       0.01259035       0.03886201 </v>
   <v>       0.02522823       0.01259035       0.03886201 </v>
   <v>       0.34828551      -0.02138002       0.12367755 </v>
   <v>       0.34828551      -0.02138002       0.12367755 </v>
   <v>       0.34828551      -0.02138002       0.12367755 </v>
   <v>       0.34828551      -0.02138002       0.12367755 </v>
   <v>       0.34828551      -0.02138002       0.12367755 </v>
   <v>       0.34828551      -0.02138002       0.12367755 </v>
   <v>       0.34828551      -0.02138002       0.12367755 </v>
   <v>       0.34828551      -0.02138002       0.12367755 </v>
   <v>      -0.02879624      -0.02138001       0.36846939 </v>
   <v>      -0.02879624      -0.02138001       0.36846939 </v>
   <v>      -0.02879624      -0.02138001       0.36846939 </v>
   <v>      -0.02879624      -0.02138001       0.36846939 </v>
   <v>      -0.02879624      -0.02138001       0.36846939 </v>
   <v>      -0.02879624      -0.02138001       0.36846939 </v>
   <v>      -0.02879624      -0.02138001       0.36846939 </v>
   <v>      -0.02879624      -0.02138001       0.36846939 </v>
   <v>       0.08028827       0.33957872       0.12367755 </v>
   <v>       0.08028827       0.33957872       0.12367755 </v>
   <v>       0.08028827       0.33957872       0.12367755 </v>
   <v>       0.08028827       0.33957872       0.12367755 </v>
   <v>       0.08028827       0.33957872       0.12367755 </v>
   <v>       0.08028827       0.33957872       0.12367755 </v>
   <v>       0.08028827       0.33957872       0.12367755 </v>
   <v>       0.08028827       0.33957872       0.12367755 </v>
   <v>      -0.34828551       0.02138002      -0.12367755 </v>
   <v>      -0.34828551       0.02138002      -0.12367755 </v>
   <v>      -0.34828551       0.02138002      -0.12367755 </v>
   <v>      -0.34828551       0.02138002      -0.12367755 </v>
   <v>      -0.34828551       0.02138002      -0.12367755 </v>
   <v>      -0.34828551       0.02138002      -0.12367755 </v>
   <v>      -0.34828551       0.02138002      -0.12367755 </v>
   <v>      -0.34828551       0.02138002      -0.12367755 </v>
   <v>       0.02879624       0.02138001      -0.36846939 </v>
   <v>       0.02879624       0.02138001      -0.36846939 </v>
   <v>       0.02879624       0.02138001      -0.36846939 </v>
   <v>       0.02879624       0.02138001      -0.36846939 </v>
   <v>       0.02879624       0.02138001      -0.36846939 </v>
   <v>       0.02879624       0.02138001      -0.36846939 </v>
   <v>       0.02879624       0.02138001      -0.36846939 </v>
   <v>       0.02879624       0.02138001      -0.36846939 </v>
   <v>      -0.08028827      -0.33957872      -0.12367755 </v>
   <v>      -0.08028827      -0.33957872      -0.12367755 </v>
   <v>      -0.08028827      -0.33957872      -0.12367755 </v>
   <v>      -0.08028827      -0.33957872      -0.12367755 </v>
   <v>      -0.08028827      -0.33957872      -0.12367755 </v>
   <v>      -0.08028827      -0.33957872      -0.12367755 </v>
   <v>      -0.08028827      -0.33957872      -0.12367755 </v>
   <v>      -0.08028827      -0.33957872      -0.12367755 </v>
   <v>      -0.13716332      -0.10183823      -0.21128883 </v>
   <v>      -0.13716332      -0.10183823      -0.21128883 </v>
   <v>      -0.13716332      -0.10183823      -0.21128883 </v>
   <v>      -0.13716332      -0.10183823      -0.21128883 </v>
   <v>      -0.13716332      -0.10183823      -0.21128883 </v>
   <v>      -0.13716332      -0.10183823      -0.21128883 </v>
   <v>      -0.13716332      -0.10183823      -0.21128883 </v>
   <v>      -0.13716332      -0.10183823      -0.21128883 </v>
   <v>       0.13716332       0.10183823       0.21128883 </v>
   <v>       0.13716332       0.10183823       0.21128883 </v>
   <v>       0.13716332       0.10183823       0.21128883 </v>
   <v>       0.13716332       0.10183823       0.21128883 </v>
   <v>       0.13716332       0.10183823       0.21128883 </v>
   <v>       0.13716332       0.10183823       0.21128883 </v>
   <v>       0.13716332       0.10183823       0.21128883 </v>
   <v>       0.13716332       0.10183823       0.21128883 </v>
  </varray>
  <varray name="stress" >
   <v>     243.05320799      -1.28237559      -2.66056395 </v>
   <v>      -1.28237559     243.82830715      -1.97534195 </v>
   <v>      -2.66056395      -1.97534195     240.68196413 </v>
  </varray>
  <energy>
   <i name="e_fr_energy">   -788.35246040 </i>
   <i name="e_wo_entrp">   -788.35246040 </i>
   <i name="e_0_energy">   -788.35246040 </i>
  </energy>
  <time name="totalsc">   73.41   73.21</time>
 </calculation>
 <calculation>
  <scstep>
   <time name="dav">    3.27    3.27</time>
   <time name="total">    5.01    5.00</time>
   <energy>
    <i name="alphaZ">   1123.44528264 </i>
    <i name="ewald"> -10372.14517883 </i>
    <i name="hartreedc">  -1400.88648789 </i>
    <i name="XCdc">    952.31553845 </i>
    <i name="pawpsdc">  38344.61906095 </i>
    <i name="pawaedc"> -38283.68134409 </i>
    <i name="eentropy">      0.00000000 </i>
    <i name="bandstr">   -338.78352567 </i>
    <i name="atom">   9186.75495500 </i>
    <i name="e_fr_energy">   -788.36169943 </i>
    <i name="e_wo_entrp">   -788.36169943 </i>
    <i name="e_0_energy">   -788.36169943 </i>
   </energy>
  </scstep>
  <scstep>
   <time name="diag">    0.65    0.65</time>
   <time name="diis">    2.78    2.75</time>
   <time name="orth">    0.02    0.02</time>
   <time name="total">    5.19    5.16</time>
   <energy>
    <i name="e_fr_energy">   -788.35679218 </i>
    <i name="e_wo_entrp">   -788.35679218 </i>
    <i name="e_0_energy">   -788.35679218 </i>
   </energy>
  </scstep>
  <scstep>
   <time name="diag">    0.65    0.65</time>
   <time name="diis">    2.81    2.77</time>
   <time name="orth">    0.02    0.02</time>
   <time name="total">    5.25    5.21</time>
   <energy>
    <i name="e_fr_energy">   -788.35536524 </i>
    <i name="e_wo_entrp">   -788.35536524 </i>
    <i name="e_0_energy">   -788.35536524 </i>
   </energy>
  </scstep>
  <scstep>
   <time name="diag">    0.65    0.65</time>
   <time name="diis">    2.76    2.74</time>
   <time name="orth">    0.02    0.02</time>
   <time name="total">    5.15    5.14</time>
   <energy>
    <i name="e_fr_energy">   -788.35542804 </i>
    <i name="e_wo_entrp">   -788.35542804 </i>
    <i name="e_0_energy">   -788.35542804 </i>
   </energy>
  </scstep>
  <scstep>
   <time name="diag">    0.65    0.65</time>
   <time name="diis">    2.77    2.75</time>
   <time name="orth">    0.02    0.02</time>
   <time name="total">    5.19    5.17</time>
   <energy>
    <i name="e_fr_energy">   -788.35546162 </i>
    <i name="e_wo_entrp">   -788.35546162 </i>
    <i name="e_0_energy">   -788.35546162 </i>
   </energy>
  </scstep>
  <scstep>
   <time name="diag">    0.65    0.65</time>
   <time name="diis">    2.35    2.34</time>
   <time name="orth">    0.02    0.02</time>
   <time name="total">    3.26    3.25</time>
   <energy>
    <i name="alphaZ">   1123.44528264 </i>
    <i name="ewald"> -10372.14517883 </i>
    <i name="hartreedc">  -1401.88132344 </i>
    <i name="XCdc">    952.34724538 </i>
    <i name="pawpsdc">  38382.73936370 </i>
    <i name="pawaedc"> -38321.81339741 </i>
    <i name="eentropy">      0.00000000 </i>
    <i name="bandstr">   -337.80240885 </i>
    <i name="atom">   9186.75495500 </i>
    <i name="e_fr_energy">   -788.35546181 </i>
    <i name="e_wo_entrp">   -788.35546181 </i>
    <i name="e_0_energy">   -788.35546181 </i>
   </energy>
  </scstep>
  <structure>
   <crystal>
    <varray name="basis" >
     <v>       9.12640543       0.04858788       4.13856812 </v>
     <v>       2.68665199       8.72212973       4.13856815 </v>
     <v>       0.06544086       0.04858794      10.02071496 </v>
    </varray>
    <i name="volume">    792.71377298 </i>
    <varray name="rec_basis" >
     <v>       0.11000300      -0.03362039      -0.00055536 </v>
     <v>      -0.00036053       0.11502547      -0.00055538 </v>
     <v>      -0.04528248      -0.03362041       0.10025202 </v>
    </varray>
   </crystal>
   <varray name="positions" >
    <v>       0.15979856       0.40013829       0.40013829 </v>
    <v>       0.15979856       0.40013829       0.90013829 </v>
    <v>       0.15979856       0.90013829       0.40013829 </v>
    <v>       0.15979856       0.90013829       0.90013829 </v>
    <v>       0.65979856       0.40013829       0.40013829 </v>
    <v>       0.65979856       0.40013829       0.90013829 </v>
    <v>       0.65979856       0.90013829       0.40013829 </v>
    <v>       0.65979856       0.90013829       0.90013829 </v>
    <v>       0.40013829       0.40013829       0.15979856 </v>
    <v>       0.40013829       0.40013829       0.65979856 </v>
    <v>       0.40013829       0.90013829       0.15979856 </v>
    <v>       0.40013829       0.90013829       0.65979856 </v>
    <v>       0.90013829       0.40013829       0.15979856 </v>
    <v>       0.90013829       0.40013829       0.65979856 </v>
    <v>       0.90013829       0.90013829       0.15979856 </v>
[...]
       <r>    -7.2586    17.0747    37.1605 </r>
       <r>    -7.1698    11.8254    38.4406 </r>
       <r>    -7.0810     7.1799    39.2777 </r>
       <r>    -6.9922     3.4831    39.7440 </r>
       <r>    -6.9034     3.6544    39.9531 </r>
       <r>    -6.8146    20.0935    40.9794 </r>
       <r>    -6.7258    21.4809    43.0304 </r>
       <r>    -6.6370     0.7184    44.0054 </r>
       <r>    -6.5482    21.6974    45.0362 </r>
       <r>    -6.4594    12.7618    46.8346 </r>
       <r>    -6.3706     5.7403    47.5965 </r>
       <r>    -6.2818    10.6077    48.0610 </r>
       <r>    -6.1930    19.8524    49.5527 </r>
       <r>    -6.1042    12.7382    51.0735 </r>
       <r>    -6.0154    12.1039    51.9797 </r>
       <r>    -5.9266    46.1255    54.9985 </r>
       <r>    -5.8378     8.1847    56.1481 </r>
       <r>    -5.7490    20.6516    57.6125 </r>
       <r>    -5.6602    23.6554    59.5607 </r>
       <r>    -5.5714    30.3033    61.9276 </r>
       <r>    -5.4826    28.4670    64.9104 </r>
       <r>    -5.3938    25.5713    66.5046 </r>
       <r>    -5.3050    24.4430    69.0428 </r>
       <r>    -5.2162    16.2031    70.4458 </r>
       <r>    -5.1274    23.8145    72.2523 </r>
       <r>    -5.0386    27.4278    74.5567 </r>
       <r>    -4.9498    22.7112    77.6127 </r>
       <r>    -4.8610    16.9577    78.8655 </r>
       <r>    -4.7722    19.0545    81.2553 </r>
       <r>    -4.6834     7.9585    81.8813 </r>
       <r>    -4.5946    15.3930    83.0856 </r>
       <r>    -4.5058     2.5392    83.9666 </r>
       <r>    -4.4170    18.8717    84.8128 </r>
       <r>    -4.3282     7.0657    85.7527 </r>
       <r>    -4.2394    45.2570    87.4472 </r>
       <r>    -4.1506    21.9993    90.3897 </r>
       <r>    -4.0618    18.0884    92.1695 </r>
       <r>    -3.9730    14.1959    93.6028 </r>
       <r>    -3.8842    10.3220    94.6913 </r>
       <r>    -3.7954     6.4666    95.4366 </r>
       <r>    -3.7066     2.6367    95.8403 </r>
       <r>    -3.6178     0.6618    95.9703 </r>
       <r>    -3.5290     0.1049    95.9969 </r>
       <r>    -3.4402     0.0000    96.0000 </r>
       <r>    -3.3514     1.4281    96.0397 </r>
       <r>    -3.2626     6.1474    96.3516 </r>
       <r>    -3.1738    12.5118    97.1795 </r>
       <r>    -3.0850    19.0552    98.5795 </r>
       <r>    -2.9961    29.2279   100.6654 </r>
       <r>    -2.9073    21.2359   103.1274 </r>
       <r>    -2.8185    11.1702   104.3506 </r>
       <r>    -2.7297     5.9858   105.1222 </r>
       <r>    -2.6409    19.3158   106.2757 </r>
       <r>    -2.5521    15.6373   107.9745 </r>
       <r>    -2.4633    19.7608   109.5249 </r>
       <r>    -2.3745    22.5808   111.3990 </r>
       <r>    -2.2857    26.3109   113.5629 </r>
       <r>    -2.1969    29.9849   116.0853 </r>
       <r>    -2.1081    14.2351   118.2563 </r>
       <r>    -2.0193    19.4931   119.5997 </r>
       <r>    -1.9305    35.4399   122.1099 </r>
       <r>    -1.8417    21.2458   124.6151 </r>
       <r>    -1.7529    14.7047   126.2063 </r>
       <r>    -1.6641    70.3547   128.6109 </r>
       <r>    -1.5753    35.1933   132.3857 </r>
       <r>    -1.4865    44.4272   135.5513 </r>
       <r>    -1.3977    37.2783   139.7841 </r>
       <r>    -1.3089    54.3938   143.1738 </r>
       <r>    -1.2201    18.5399   146.7797 </r>
       <r>    -1.1313     6.4776   147.7966 </r>
       <r>    -1.0425     6.2329   148.2889 </r>
       <r>    -0.9537    21.5454   149.2068 </r>
       <r>    -0.8649    40.3921   152.0664 </r>
       <r>    -0.7761    49.7691   156.1967 </r>
       <r>    -0.6873    20.4918   159.1191 </r>
       <r>    -0.5985    15.7761   160.6843 </r>
       <r>    -0.5097    50.1473   163.3107 </r>
       <r>    -0.4209    54.6283   168.3688 </r>
       <r>    -0.3321    29.5797   172.5349 </r>
       <r>    -0.2433    22.7588   174.7692 </r>
       <r>    -0.1545    48.0113   177.9450 </r>
       <r>    -0.0657    11.2992   179.4820 </r>
       <r>     0.0231     9.1289   180.3410 </r>
       <r>     0.1119    11.4715   181.2519 </r>
       <r>     0.2007    14.2126   182.3940 </r>
       <r>     0.2895    16.7933   183.7715 </r>
       <r>     0.3783    19.2535   185.3729 </r>
       <r>     0.4671    21.5936   187.1875 </r>
       <r>     0.5559    22.6796   189.5564 </r>
       <r>     0.6447    18.7717   190.8605 </r>
       <r>     0.7335    27.2478   192.9580 </r>
       <r>     0.8223    25.6198   195.3856 </r>
       <r>     0.9111    54.9293   200.3587 </r>
       <r>     0.9999    53.8208   203.7483 </r>
       <r>     1.0887    42.1797   208.3442 </r>
       <r>     1.1775    31.1475   211.3929 </r>
       <r>     1.2663    40.7687   214.7133 </r>
       <r>     1.3551    36.4383   217.7645 </r>
       <r>     1.4439    29.1869   220.7232 </r>
       <r>     1.5327    33.0540   223.5999 </r>
       <r>     1.6215    56.9160   226.5263 </r>
       <r>     1.7103    60.9882   230.6689 </r>
       <r>     1.7991    39.4138   236.0000 </r>
       <r>     1.8879    44.8594   237.5989 </r>
       <r>     1.9767    77.5670   244.4062 </r>
       <r>     2.0655    37.8805   251.1257 </r>
       <r>     2.1543    30.4660   254.1608 </r>
       <r>     2.2431    22.9812   256.5344 </r>
       <r>     2.3319    15.4261   258.2403 </r>
       <r>     2.4207     8.3619   259.2837 </r>
       <r>     2.5095     4.4352   259.8030 </r>
       <r>     2.5983    13.0669   260.4165 </r>
       <r>     2.6871   104.7469   265.1072 </r>
       <r>     2.7759   115.3496   275.8716 </r>
       <r>     2.8647   204.8693   284.6553 </r>
       <r>     2.9535    27.3251   289.5124 </r>
       <r>     3.0423    44.9626   291.6707 </r>
       <r>     3.1311    20.4405   295.2281 </r>
       <r>     3.2199    38.0813   297.1365 </r>
       <r>     3.3087    39.3258   299.6425 </r>
       <r>     3.3975    50.3019   304.0299 </r>
       <r>     3.4863    50.6377   308.6211 </r>
       <r>     3.5751    69.3643   314.4294 </r>
       <r>     3.6639    27.1613   318.3241 </r>
       <r>     3.7528    43.1883   321.7304 </r>
       <r>     3.8416    34.7887   325.1156 </r>
       <r>     3.9304   102.6470   328.6478 </r>
       <r>     4.0192     9.5453   331.7506 </r>
       <r>     4.1080     0.0302   332.0001 </r>
       <r>     4.1968    20.1180   332.5374 </r>
       <r>     4.2856    59.8060   336.0662 </r>
       <r>     4.3744    37.2413   341.1568 </r>
       <r>     4.4632    28.3383   343.0890 </r>
       <r>     4.5520    28.3758   345.7301 </r>
       <r>     4.6408    13.1060   347.6403 </r>
       <r>     4.7296    11.5745   348.7180 </r>
       <r>     4.8184    15.3207   349.8118 </r>
       <r>     4.9072    21.1504   351.4825 </r>
       <r>     4.9960     4.6703   352.8282 </r>
       <r>     5.0848     9.5643   353.3522 </r>
       <r>     5.1736    12.4712   354.3717 </r>
       <r>     5.2624     9.8320   355.4030 </r>
       <r>     5.3512     1.6467   355.9537 </r>
       <r>     5.4400     0.0113   356.0000 </r>
       <r>     5.5288     0.0000   356.0000 </r>
       <r>     5.6176     0.0000   356.0000 </r>
       <r>     5.7064    11.4671   356.0818 </r>
       <r>     5.7952    54.2967   360.4152 </r>
       <r>     5.8840    32.6051   363.2922 </r>
       <r>     5.9728    41.8802   367.1425 </r>
       <r>     6.0616     0.0000   368.0000 </r>
       <r>     6.1504     0.2322   368.0067 </r>
       <r>     6.2392     0.9505   368.0556 </r>
       <r>     6.3280     2.1550   368.1899 </r>
       <r>     6.4168     4.8768   368.4651 </r>
       <r>     6.5056     9.2611   369.1096 </r>
       <r>     6.5944    11.3750   370.0427 </r>
       <r>     6.6832    11.2187   371.0627 </r>
       <r>     6.7720     8.7920   371.9680 </r>
       <r>     6.8608    20.8539   372.7906 </r>
       <r>     6.9496    21.2233   375.1415 </r>
       <r>     7.0384    18.1021   376.8693 </r>
       <r>     7.1272    15.5860   378.3653 </r>
       <r>     7.2160    59.6478   379.9084 </r>
       <r>     7.3048    10.1855   382.4750 </r>
       <r>     7.3936     6.2098   383.1902 </r>
       <r>     7.4824     3.6961   383.6235 </r>
       <r>     7.5712     1.8601   383.8656 </r>
       <r>     7.6600     0.6483   383.9723 </r>
       <r>     7.7488     0.0607   383.9992 </r>
       <r>     7.8376     0.0000   384.0000 </r>
       <r>     7.9264     0.0000   384.0000 </r>
       <r>     8.0152     0.0000   384.0000 </r>
       <r>     8.1040     0.0000   384.0000 </r>
       <r>     8.1928     0.0000   384.0000 </r>
       <r>     8.2816     0.0000   384.0000 </r>
       <r>     8.3704     0.0000   384.0000 </r>
       <r>     8.4592     0.0000   384.0000 </r>
       <r>     8.5480     0.0000   384.0000 </r>
       <r>     8.6368     0.0000   384.0000 </r>
       <r>     8.7256     0.0000   384.0000 </r>
       <r>     8.8144     0.0373   384.0004 </r>
       <r>     8.9032     0.4929   384.0201 </r>
       <r>     8.9920     1.4664   384.1033 </r>
       <r>     9.0808     2.9579   384.2959 </r>
       <r>     9.1696     4.9674   384.6440 </r>
       <r>     9.2584     8.8914   385.2102 </r>
       <r>     9.3472    12.1643   386.2034 </r>
       <r>     9.4360     7.5610   387.1375 </r>
       <r>     9.5248     6.0281   387.7056 </r>
       <r>     9.6136    17.7407   388.6748 </r>
       <r>     9.7024    23.4738   390.5845 </r>
       <r>     9.7912    21.2709   392.6096 </r>
       <r>     9.8800    16.1409   394.2695 </r>
       <r>     9.9688    10.4990   395.4693 </r>
       <r>    10.0576    10.5851   396.3036 </r>
       <r>    10.1464    27.4407   397.9198 </r>
       <r>    10.2352    11.9035   399.4919 </r>
       <r>    10.3240    12.4994   400.5346 </r>
       <r>    10.4128    19.0585   401.8854 </r>
       <r>    10.5017    40.3809   405.6023 </r>
       <r>    10.5905    19.7660   408.7008 </r>
       <r>    10.6793    11.6339   409.5993 </r>
       <r>    10.7681    14.1862   410.7500 </r>
       <r>    10.8569    15.8845   412.0942 </r>
       <r>    10.9457    16.3528   413.5346 </r>
       <r>    11.0345    25.1049   415.3498 </r>
       <r>    11.1233    71.5423   419.1494 </r>
       <r>    11.2121    21.0898   423.7366 </r>
       <r>    11.3009    12.9614   425.0107 </r>
       <r>    11.3897    28.1538   426.6444 </r>
       <r>    11.4785    30.8485   430.1932 </r>
       <r>    11.5673    16.0065   432.4451 </r>
       <r>    11.6561     8.2133   433.0134 </r>
       <r>    11.7449    10.8729   433.8697 </r>
       <r>    11.8337    12.7524   434.9242 </r>
       <r>    11.9225    14.2186   436.1241 </r>
       <r>    12.0113    15.3580   437.4398 </r>
       <r>    12.1001    16.1705   438.8421 </r>
       <r>    12.1889    16.6562   440.3020 </r>
       <r>    12.2777    16.8152   441.7906 </r>
       <r>    12.3665    16.6473   443.2788 </r>
       <r>    12.4553    14.6626   444.7274 </r>
       <r>    12.5441    55.3798   448.4114 </r>
       <r>    12.6329    15.2374   450.4456 </r>
       <r>    12.7217    16.4698   451.6523 </r>
       <r>    12.8105    16.7999   453.1124 </r>
       <r>    12.8993    19.4112   454.7042 </r>
       <r>    12.9881    20.4773   456.4981 </r>
       <r>    13.0769    11.4921   458.0871 </r>
       <r>    13.1657     9.1016   458.9467 </r>
       <r>    13.2545    18.1018   459.7341 </r>
       <r>    13.3433    22.4743   463.3405 </r>
       <r>    13.4321    14.6223   464.6666 </r>
       <r>    13.5209     8.6186   465.9072 </r>
       <r>    13.6097     0.0000   466.0000 </r>
       <r>    13.6985     0.0000   466.0000 </r>
       <r>    13.7873     0.0000   466.0000 </r>
       <r>    13.8761     0.0000   466.0000 </r>
       <r>    13.9649     0.0000   466.0000 </r>
       <r>    14.0537     0.0000   466.0000 </r>
       <r>    14.1425     0.0000   466.0000 </r>
       <r>    14.2313     0.0000   466.0000 </r>
       <r>    14.3201     0.0000   466.0000 </r>
       <r>    14.4089     0.0000   466.0000 </r>
       <r>    14.4977     0.0000   466.0000 </r>
       <r>    14.5865     0.0000   466.0000 </r>
       <r>    14.6753     0.0000   466.0000 </r>
       <r>    14.7641     0.0000   466.0000 </r>
      </set>
     </set>
    </array>
   </total>
  </dos>
 </calculation>
 <structure name="finalpos" >
  <crystal>
   <varray name="basis" >
    <v>       9.11939650       0.02605873       4.10222439 </v>
    <v>       2.66305843       8.72193815       4.10222466 </v>
    <v>       0.03509713       0.02605923       9.99951930 </v>
   </varray>
   <i name="volume">    792.71377298 </i>
   <varray name="rec_basis" >
    <v>       0.10988618      -0.03341096      -0.00029862 </v>
    <v>      -0.00019386       0.11485306      -0.00029863 </v>
    <v>      -0.04500041      -0.03341099       0.10024982 </v>
   </varray>
  </crystal>
  <varray name="positions" >
   <v>       0.15977881       0.39958568       0.39958568 </v>
   <v>       0.15977881       0.39958568       0.89958568 </v>
   <v>       0.15977881       0.89958568       0.39958568 </v>
   <v>       0.15977881       0.89958568       0.89958568 </v>
   <v>       0.65977881       0.39958568       0.39958568 </v>
   <v>       0.65977881       0.39958568       0.89958568 </v>
   <v>       0.65977881       0.89958568       0.39958568 </v>
   <v>       0.65977881       0.89958568       0.89958568 </v>
   <v>       0.39958568       0.39958568       0.15977881 </v>
   <v>       0.39958568       0.39958568       0.65977881 </v>
   <v>       0.39958568       0.89958568       0.15977881 </v>
   <v>       0.39958568       0.89958568       0.65977881 </v>
   <v>       0.89958568       0.39958568       0.15977881 </v>
   <v>       0.89958568       0.39958568       0.65977881 </v>
   <v>       0.89958568       0.89958568       0.15977881 </v>
   <v>       0.89958568       0.89958568       0.65977881 </v>
   <v>       0.39958568       0.15977881       0.39958568 </v>
   <v>       0.39958568       0.15977881       0.89958568 </v>
   <v>       0.39958568       0.65977881       0.39958568 </v>
   <v>       0.39958568       0.65977881       0.89958568 </v>
   <v>       0.89958568       0.15977881       0.39958568 </v>
   <v>       0.89958568       0.15977881       0.89958568 </v>
   <v>       0.89958568       0.65977881       0.39958568 </v>
   <v>       0.89958568       0.65977881       0.89958568 </v>
   <v>       0.34022119       0.10041432       0.10041432 </v>
   <v>       0.34022119       0.10041432       0.60041432 </v>
   <v>       0.34022119       0.60041432       0.10041432 </v>
   <v>       0.34022119       0.60041432       0.60041432 </v>
   <v>       0.84022119       0.10041432       0.10041432 </v>
   <v>       0.84022119       0.10041432       0.60041432 </v>
   <v>       0.84022119       0.60041432       0.10041432 </v>
   <v>       0.84022119       0.60041432       0.60041432 </v>
   <v>       0.10041432       0.10041432       0.34022119 </v>
   <v>       0.10041432       0.10041432       0.84022119 </v>
   <v>       0.10041432       0.60041432       0.34022119 </v>
   <v>       0.10041432       0.60041432       0.84022119 </v>
   <v>       0.60041432       0.10041432       0.34022119 </v>
   <v>       0.60041432       0.10041432       0.84022119 </v>
   <v>       0.60041432       0.60041432       0.34022119 </v>
   <v>       0.60041432       0.60041432       0.84022119 </v>
   <v>       0.10041432       0.34022119       0.10041432 </v>
   <v>       0.10041432       0.34022119       0.60041432 </v>
   <v>       0.10041432       0.84022119       0.10041432 </v>
   <v>       0.10041432       0.84022119       0.60041432 </v>
   <v>       0.60041432       0.34022119       0.10041432 </v>
   <v>       0.60041432       0.34022119       0.60041432 </v>
   <v>       0.60041432       0.84022119       0.10041432 </v>
   <v>       0.60041432       0.84022119       0.60041432 </v>
   <v>       0.33273682      -0.00059058      -0.00059058 </v>
   <v>       0.33273682      -0.00059058       0.49940942 </v>
   <v>       0.33273682       0.49940942      -0.00059058 </v>
   <v>       0.33273682       0.49940942       0.49940942 </v>
   <v>       0.83273682      -0.00059058      -0.00059058 </v>
   <v>       0.83273682      -0.00059058       0.49940942 </v>
   <v>       0.83273682       0.49940942      -0.00059058 </v>
   <v>       0.83273682       0.49940942       0.49940942 </v>
   <v>      -0.00059058      -0.00059058       0.33273682 </v>
   <v>      -0.00059058      -0.00059058       0.83273682 </v>
   <v>      -0.00059058       0.49940942       0.33273682 </v>
   <v>      -0.00059058       0.49940942       0.83273682 </v>
   <v>       0.49940942      -0.00059058       0.33273682 </v>
   <v>       0.49940942      -0.00059058       0.83273682 </v>
   <v>       0.49940942       0.49940942       0.33273682 </v>
   <v>       0.49940942       0.49940942       0.83273682 </v>
   <v>      -0.00059058       0.33273682      -0.00059058 </v>
   <v>      -0.00059058       0.33273682       0.49940942 </v>
   <v>      -0.00059058       0.83273682      -0.00059058 </v>
   <v>      -0.00059058       0.83273682       0.49940942 </v>
   <v>       0.49940942       0.33273682      -0.00059058 </v>
   <v>       0.49940942       0.33273682       0.49940942 </v>
   <v>       0.49940942       0.83273682      -0.00059058 </v>
   <v>       0.49940942       0.83273682       0.49940942 </v>
   <v>       0.16726318       0.00059058       0.00059058 </v>
   <v>       0.16726318       0.00059058       0.50059058 </v>
   <v>       0.16726318       0.50059058       0.00059058 </v>
   <v>       0.16726318       0.50059058       0.50059058 </v>
   <v>       0.66726318       0.00059058       0.00059058 </v>
   <v>       0.66726318       0.00059058       0.50059058 </v>
   <v>       0.66726318       0.50059058       0.00059058 </v>
   <v>       0.66726318       0.50059058       0.50059058 </v>
   <v>       0.00059058       0.00059058       0.16726318 </v>
   <v>       0.00059058       0.00059058       0.66726318 </v>
   <v>       0.00059058       0.50059058       0.16726318 </v>
   <v>       0.00059058       0.50059058       0.66726318 </v>
   <v>       0.50059058       0.00059058       0.16726318 </v>
   <v>       0.50059058       0.00059058       0.66726318 </v>
   <v>       0.50059058       0.50059058       0.16726318 </v>
   <v>       0.50059058       0.50059058       0.66726318 </v>
   <v>       0.00059058       0.16726318       0.00059058 </v>
   <v>       0.00059058       0.16726318       0.50059058 </v>
   <v>       0.00059058       0.66726318       0.00059058 </v>
   <v>       0.00059058       0.66726318       0.50059058 </v>
   <v>       0.50059058       0.16726318       0.00059058 </v>
   <v>       0.50059058       0.16726318       0.50059058 </v>
   <v>       0.50059058       0.66726318       0.00059058 </v>
   <v>       0.50059058       0.66726318       0.50059058 </v>
   <v>       0.31321547       0.31321547       0.31321547 </v>
   <v>       0.31321547       0.31321547       0.81321547 </v>
   <v>       0.31321547       0.81321547       0.31321547 </v>
   <v>       0.31321547       0.81321547       0.81321547 </v>
   <v>       0.81321547       0.31321547       0.31321547 </v>
   <v>       0.81321547       0.31321547       0.81321547 </v>
   <v>       0.81321547       0.81321547       0.31321547 </v>
   <v>       0.81321547       0.81321547       0.81321547 </v>
   <v>       0.18678453       0.18678453       0.18678453 </v>
   <v>       0.18678453       0.18678453       0.68678453 </v>
   <v>       0.18678453       0.68678453       0.18678453 </v>
   <v>       0.18678453       0.68678453       0.68678453 </v>
   <v>       0.68678453       0.18678453       0.18678453 </v>
   <v>       0.68678453       0.18678453       0.68678453 </v>
   <v>       0.68678453       0.68678453       0.18678453 </v>
   <v>       0.68678453       0.68678453       0.68678453 </v>
  </varray>
 </structure>
</modeling>
