unknown system                          
            1
     9.133282    0.070325    4.173685
     2.709449    8.722424    4.173685
     0.094718    0.070325   10.041290
   B    C 
    96    16
unknown system                          
            1
     9.133282    0.070325    4.173685
     2.709449    8.722424    4.173685
     0.094718    0.070325   10.041290
   B    C 
    96    16
Direct configuration=     1
   0.16039500  0.40051500  0.40051500
   0.16039500  0.40051500  0.90051500
   0.16039500  0.90051500  0.40051500
   0.16039500  0.90051500  0.90051500
   0.66039500  0.40051500  0.40051500
   0.66039500  0.40051500  0.90051500
   0.66039500  0.90051500  0.40051500
   0.66039500  0.90051500  0.90051500
   0.40051500  0.40051500  0.16039500
   0.40051500  0.40051500  0.66039500
   0.40051500  0.90051500  0.16039500
   0.40051500  0.90051500  0.66039500
   0.90051500  0.40051500  0.16039500
   0.90051500  0.40051500  0.66039500
   0.90051500  0.90051500  0.16039500
   0.90051500  0.90051500  0.66039500
   0.40051500  0.16039500  0.40051500
   0.40051500  0.16039500  0.90051500
   0.40051500  0.66039500  0.40051500
   0.40051500  0.66039500  0.90051500
   0.90051500  0.16039500  0.40051500
   0.90051500  0.16039500  0.90051500
   0.90051500  0.66039500  0.40051500
   0.90051500  0.66039500  0.90051500
   0.33960500  0.09948500  0.09948500
   0.33960500  0.09948500  0.59948500
   0.33960500  0.59948500  0.09948500
   0.33960500  0.59948500  0.59948500
   0.83960500  0.09948500  0.09948500
   0.83960500  0.09948500  0.59948500
   0.83960500  0.59948500  0.09948500
   0.83960500  0.59948500  0.59948500
   0.09948500  0.09948500  0.33960500
   0.09948500  0.09948500  0.83960500
   0.09948500  0.59948500  0.33960500
   0.09948500  0.59948500  0.83960500
   0.59948500  0.09948500  0.33960500
   0.59948500  0.09948500  0.83960500
   0.59948500  0.59948500  0.33960500
   0.59948500  0.59948500  0.83960500
   0.09948500  0.33960500  0.09948500
   0.09948500  0.33960500  0.59948500
   0.09948500  0.83960500  0.09948500
   0.09948500  0.83960500  0.59948500
   0.59948500  0.33960500  0.09948500
   0.59948500  0.33960500  0.59948500
   0.59948500  0.83960500  0.09948500
   0.59948500  0.83960500  0.59948500
   0.33229300  0.00011500  0.00011500
   0.33229300  0.00011500  0.50011500
   0.33229300  0.50011500  0.00011500
   0.33229300  0.50011500  0.50011500
   0.83229300  0.00011500  0.00011500
   0.83229300  0.00011500  0.50011500
   0.83229300  0.50011500  0.00011500
   0.83229300  0.50011500  0.50011500
   0.00011500  0.00011500  0.33229300
   0.00011500  0.00011500  0.83229300
   0.00011500  0.50011500  0.33229300
   0.00011500  0.50011500  0.83229300
   0.50011500  0.00011500  0.33229300
   0.50011500  0.00011500  0.83229300
   0.50011500  0.50011500  0.33229300
   0.50011500  0.50011500  0.83229300
   0.00011500  0.33229300  0.00011500
   0.00011500  0.33229300  0.50011500
   0.00011500  0.83229300  0.00011500
   0.00011500  0.83229300  0.50011500
   0.50011500  0.33229300  0.00011500
   0.50011500  0.33229300  0.50011500
   0.50011500  0.83229300  0.00011500
   0.50011500  0.83229300  0.50011500
   0.16770700  0.99988500  0.99988500
   0.16770700  0.99988500  0.49988500
   0.16770700  0.49988500  0.99988500
   0.16770700  0.49988500  0.49988500
   0.66770700  0.99988500  0.99988500
   0.66770700  0.99988500  0.49988500
   0.66770700  0.49988500  0.99988500
   0.66770700  0.49988500  0.49988500
   0.99988500  0.99988500  0.16770700
   0.99988500  0.99988500  0.66770700
   0.99988500  0.49988500  0.16770700
   0.99988500  0.49988500  0.66770700
   0.49988500  0.99988500  0.16770700
   0.49988500  0.99988500  0.66770700
   0.49988500  0.49988500  0.16770700
   0.49988500  0.49988500  0.66770700
   0.99988500  0.16770700  0.99988500
   0.99988500  0.16770700  0.49988500
   0.99988500  0.66770700  0.99988500
   0.99988500  0.66770700  0.49988500
   0.49988500  0.16770700  0.99988500
   0.49988500  0.16770700  0.49988500
   0.49988500  0.66770700  0.99988500
   0.49988500  0.66770700  0.49988500
   0.31539700  0.31539700  0.31539700
   0.31539700  0.31539700  0.81539700
   0.31539700  0.81539700  0.31539700
   0.31539700  0.81539700  0.81539700
   0.81539700  0.31539700  0.31539700
   0.81539700  0.31539700  0.81539700
   0.81539700  0.81539700  0.31539700
   0.81539700  0.81539700  0.81539700
   0.18460300  0.18460300  0.18460300
   0.18460300  0.18460300  0.68460300
   0.18460300  0.68460300  0.18460300
   0.18460300  0.68460300  0.68460300
   0.68460300  0.18460300  0.18460300
   0.68460300  0.18460300  0.68460300
   0.68460300  0.68460300  0.18460300
   0.68460300  0.68460300  0.68460300
unknown system                          
            1
     9.125662    0.046216    4.134739
     2.684166    8.722104    4.134739
     0.062246    0.046216   10.018477
   B    C 
    96    16
Direct configuration=     2
   0.15973322  0.40009685  0.40009685
   0.15973322  0.40009685  0.90009685
   0.15973322  0.90009685  0.40009685
   0.15973322  0.90009685  0.90009685
   0.65973322  0.40009685  0.40009685
   0.65973322  0.40009685  0.90009685
   0.65973322  0.90009685  0.40009685
   0.65973322  0.90009685  0.90009685
   0.40009685  0.40009685  0.15973322
   0.40009685  0.40009685  0.65973322
   0.40009685  0.90009685  0.15973322
   0.40009685  0.90009685  0.65973322
   0.90009685  0.40009685  0.15973322
   0.90009685  0.40009685  0.65973322
   0.90009685  0.90009685  0.15973322
   0.90009685  0.90009685  0.65973322
   0.40009685  0.15973322  0.40009685
   0.40009685  0.15973322  0.90009685
   0.40009685  0.65973322  0.40009685
   0.40009685  0.65973322  0.90009685
   0.90009685  0.15973322  0.40009685
   0.90009685  0.15973322  0.90009685
   0.90009685  0.65973322  0.40009685
   0.90009685  0.65973322  0.90009685
   0.34026678  0.09990315  0.09990315
   0.34026678  0.09990315  0.59990315
   0.34026678  0.59990315  0.09990315
   0.34026678  0.59990315  0.59990315
   0.84026678  0.09990315  0.09990315
   0.84026678  0.09990315  0.59990315
   0.84026678  0.59990315  0.09990315
   0.84026678  0.59990315  0.59990315
   0.09990315  0.09990315  0.34026678
   0.09990315  0.09990315  0.84026678
   0.09990315  0.59990315  0.34026678
   0.09990315  0.59990315  0.84026678
   0.59990315  0.09990315  0.34026678
   0.59990315  0.09990315  0.84026678
   0.59990315  0.59990315  0.34026678
   0.59990315  0.59990315  0.84026678
   0.09990315  0.34026678  0.09990315
   0.09990315  0.34026678  0.59990315
   0.09990315  0.84026678  0.09990315
   0.09990315  0.84026678  0.59990315
   0.59990315  0.34026678  0.09990315
   0.59990315  0.34026678  0.59990315
   0.59990315  0.84026678  0.09990315
   0.59990315  0.84026678  0.59990315
   0.33160956 -0.00028811 -0.00028811
   0.33160956 -0.00028811  0.49971189
   0.33160956  0.49971189 -0.00028811
   0.33160956  0.49971189  0.49971189
   0.83160956 -0.00028811 -0.00028811
   0.83160956 -0.00028811  0.49971189
   0.83160956  0.49971189 -0.00028811
   0.83160956  0.49971189  0.49971189
  -0.00028811 -0.00028811  0.33160956
  -0.00028811 -0.00028811  0.83160956
  -0.00028811  0.49971189  0.33160956
  -0.00028811  0.49971189  0.83160956
   0.49971189 -0.00028811  0.33160956
   0.49971189 -0.00028811  0.83160956
   0.49971189  0.49971189  0.33160956
   0.49971189  0.49971189  0.83160956
  -0.00028811  0.33160956 -0.00028811
  -0.00028811  0.33160956  0.49971189
  -0.00028811  0.83160956 -0.00028811
  -0.00028811  0.83160956  0.49971189
   0.49971189  0.33160956 -0.00028811
   0.49971189  0.33160956  0.49971189
   0.49971189  0.83160956 -0.00028811
   0.49971189  0.83160956  0.49971189
   0.16839044  0.00028811  0.00028811
   0.16839044  0.00028811  0.50028811
   0.16839044  0.50028811  0.00028811
   0.16839044  0.50028811  0.50028811
   0.66839044  0.00028811  0.00028811
   0.66839044  0.00028811  0.50028811
   0.66839044  0.50028811  0.00028811
   0.66839044  0.50028811  0.50028811
   0.00028811  0.00028811  0.16839044
   0.00028811  0.00028811  0.66839044
   0.00028811  0.50028811  0.16839044
   0.00028811  0.50028811  0.66839044
   0.50028811  0.00028811  0.16839044
   0.50028811  0.00028811  0.66839044
   0.50028811  0.50028811  0.16839044
   0.50028811  0.50028811  0.66839044
   0.00028811  0.16839044  0.00028811
   0.00028811  0.16839044  0.50028811
   0.00028811  0.66839044  0.00028811
   0.00028811  0.66839044  0.50028811
   0.50028811  0.16839044  0.00028811
   0.50028811  0.16839044  0.50028811
   0.50028811  0.66839044  0.00028811
   0.50028811  0.66839044  0.50028811
   0.31463131  0.31463131  0.31463131
   0.31463131  0.31463131  0.81463131
   0.31463131  0.81463131  0.31463131
   0.31463131  0.81463131  0.81463131
   0.81463131  0.31463131  0.31463131
   0.81463131  0.31463131  0.81463131
   0.81463131  0.81463131  0.31463131
   0.81463131  0.81463131  0.81463131
   0.18536869  0.18536869  0.18536869
   0.18536869  0.18536869  0.68536869
   0.18536869  0.68536869  0.18536869
   0.18536869  0.68536869  0.68536869
   0.68536869  0.18536869  0.18536869
   0.68536869  0.18536869  0.68536869
   0.68536869  0.68536869  0.18536869
   0.68536869  0.68536869  0.68536869
unknown system                          
            1
     9.126405    0.048588    4.138568
     2.686652    8.722130    4.138568
     0.065441    0.048588   10.020715
   B    C 
    96    16
Direct configuration=     3
   0.15979856  0.40013829  0.40013829
   0.15979856  0.40013829  0.90013829
   0.15979856  0.90013829  0.40013829
   0.15979856  0.90013829  0.90013829
   0.65979856  0.40013829  0.40013829
   0.65979856  0.40013829  0.90013829
   0.65979856  0.90013829  0.40013829
   0.65979856  0.90013829  0.90013829
   0.40013829  0.40013829  0.15979856
   0.40013829  0.40013829  0.65979856
   0.40013829  0.90013829  0.15979856
   0.40013829  0.90013829  0.65979856
   0.90013829  0.40013829  0.15979856
   0.90013829  0.40013829  0.65979856
   0.90013829  0.90013829  0.15979856
   0.90013829  0.90013829  0.65979856
   0.40013829  0.15979856  0.40013829
   0.40013829  0.15979856  0.90013829
   0.40013829  0.65979856  0.40013829
   0.40013829  0.65979856  0.90013829
   0.90013829  0.15979856  0.40013829
   0.90013829  0.15979856  0.90013829
   0.90013829  0.65979856  0.40013829
   0.90013829  0.65979856  0.90013829
   0.34020144  0.09986171  0.09986171
   0.34020144  0.09986171  0.59986171
   0.34020144  0.59986171  0.09986171
   0.34020144  0.59986171  0.59986171
   0.84020144  0.09986171  0.09986171
   0.84020144  0.09986171  0.59986171
   0.84020144  0.59986171  0.09986171
   0.84020144  0.59986171  0.59986171
   0.09986171  0.09986171  0.34020144
   0.09986171  0.09986171  0.84020144
   0.09986171  0.59986171  0.34020144
   0.09986171  0.59986171  0.84020144
   0.59986171  0.09986171  0.34020144
   0.59986171  0.09986171  0.84020144
   0.59986171  0.59986171  0.34020144
   0.59986171  0.59986171  0.84020144
   0.09986171  0.34020144  0.09986171
   0.09986171  0.34020144  0.59986171
   0.09986171  0.84020144  0.09986171
   0.09986171  0.84020144  0.59986171
   0.59986171  0.34020144  0.09986171
   0.59986171  0.34020144  0.59986171
   0.59986171  0.84020144  0.09986171
   0.59986171  0.84020144  0.59986171
   0.33167702 -0.00024816 -0.00024816
   0.33167702 -0.00024816  0.49975184
   0.33167702  0.49975184 -0.00024816
   0.33167702  0.49975184  0.49975184
   0.83167702 -0.00024816 -0.00024816
   0.83167702 -0.00024816  0.49975184
   0.83167702  0.49975184 -0.00024816
   0.83167702  0.49975184  0.49975184
  -0.00024816 -0.00024816  0.33167702
  -0.00024816 -0.00024816  0.83167702
  -0.00024816  0.49975184  0.33167702
  -0.00024816  0.49975184  0.83167702
   0.49975184 -0.00024816  0.33167702
   0.49975184 -0.00024816  0.83167702
   0.49975184  0.49975184  0.33167702
   0.49975184  0.49975184  0.83167702
  -0.00024816  0.33167702 -0.00024816
  -0.00024816  0.33167702  0.49975184
  -0.00024816  0.83167702 -0.00024816
  -0.00024816  0.83167702  0.49975184
   0.49975184  0.33167702 -0.00024816
   0.49975184  0.33167702  0.49975184
   0.49975184  0.83167702 -0.00024816
   0.49975184  0.83167702  0.49975184
   0.16832298  0.00024816  0.00024816
   0.16832298  0.00024816  0.50024816
   0.16832298  0.50024816  0.00024816
   0.16832298  0.50024816  0.50024816
   0.66832298  0.00024816  0.00024816
   0.66832298  0.00024816  0.50024816
   0.66832298  0.50024816  0.00024816
   0.66832298  0.50024816  0.50024816
   0.00024816  0.00024816  0.16832298
   0.00024816  0.00024816  0.66832298
   0.00024816  0.50024816  0.16832298
   0.00024816  0.50024816  0.66832298
   0.50024816  0.00024816  0.16832298
   0.50024816  0.00024816  0.66832298
   0.50024816  0.50024816  0.16832298
   0.50024816  0.50024816  0.66832298
   0.00024816  0.16832298  0.00024816
   0.00024816  0.16832298  0.50024816
   0.00024816  0.66832298  0.00024816
   0.00024816  0.66832298  0.50024816
   0.50024816  0.16832298  0.00024816
   0.50024816  0.16832298  0.50024816
   0.50024816  0.66832298  0.00024816
   0.50024816  0.66832298  0.50024816
   0.31470706  0.31470706  0.31470706
   0.31470706  0.31470706  0.81470706
   0.31470706  0.81470706  0.31470706
   0.31470706  0.81470706  0.81470706
   0.81470706  0.31470706  0.31470706
   0.81470706  0.31470706  0.81470706
   0.81470706  0.81470706  0.31470706
   0.81470706  0.81470706  0.81470706
   0.18529294  0.18529294  0.18529294
   0.18529294  0.18529294  0.68529294
   0.18529294  0.68529294  0.18529294
   0.18529294  0.68529294  0.68529294
   0.68529294  0.18529294  0.18529294
   0.68529294  0.18529294  0.68529294
   0.68529294  0.68529294  0.18529294
   0.68529294  0.68529294  0.68529294
unknown system                          
            1
     9.120120    0.028401    4.106001
     2.665510    8.721952    4.106001
     0.038252    0.028401   10.001717
   B    C 
    96    16
Direct configuration=     4
   0.15928319  0.39975143  0.39975143
   0.15928319  0.39975143  0.89975143
   0.15928319  0.89975143  0.39975143
   0.15928319  0.89975143  0.89975143
   0.65928319  0.39975143  0.39975143
   0.65928319  0.39975143  0.89975143
   0.65928319  0.89975143  0.39975143
   0.65928319  0.89975143  0.89975143
   0.39975143  0.39975143  0.15928319
   0.39975143  0.39975143  0.65928319
   0.39975143  0.89975143  0.15928319
   0.39975143  0.89975143  0.65928319
   0.89975143  0.39975143  0.15928319
   0.89975143  0.39975143  0.65928319
   0.89975143  0.89975143  0.15928319
   0.89975143  0.89975143  0.65928319
   0.39975143  0.15928319  0.39975143
   0.39975143  0.15928319  0.89975143
   0.39975143  0.65928319  0.39975143
   0.39975143  0.65928319  0.89975143
   0.89975143  0.15928319  0.39975143
   0.89975143  0.15928319  0.89975143
   0.89975143  0.65928319  0.39975143
   0.89975143  0.65928319  0.89975143
   0.34071681  0.10024857  0.10024857
   0.34071681  0.10024857  0.60024857
   0.34071681  0.60024857  0.10024857
   0.34071681  0.60024857  0.60024857
   0.84071681  0.10024857  0.10024857
   0.84071681  0.10024857  0.60024857
   0.84071681  0.60024857  0.10024857
   0.84071681  0.60024857  0.60024857
   0.10024857  0.10024857  0.34071681
   0.10024857  0.10024857  0.84071681
   0.10024857  0.60024857  0.34071681
   0.10024857  0.60024857  0.84071681
   0.60024857  0.10024857  0.34071681
   0.60024857  0.10024857  0.84071681
   0.60024857  0.60024857  0.34071681
   0.60024857  0.60024857  0.84071681
   0.10024857  0.34071681  0.10024857
   0.10024857  0.34071681  0.60024857
   0.10024857  0.84071681  0.10024857
   0.10024857  0.84071681  0.60024857
   0.60024857  0.34071681  0.10024857
   0.60024857  0.34071681  0.60024857
   0.60024857  0.84071681  0.10024857
   0.60024857  0.84071681  0.60024857
   0.33285573 -0.00063634 -0.00063634
   0.33285573 -0.00063634  0.49936366
   0.33285573  0.49936366 -0.00063634
   0.33285573  0.49936366  0.49936366
   0.83285573 -0.00063634 -0.00063634
   0.83285573 -0.00063634  0.49936366
   0.83285573  0.49936366 -0.00063634
   0.83285573  0.49936366  0.49936366
  -0.00063634 -0.00063634  0.33285573
  -0.00063634 -0.00063634  0.83285573
  -0.00063634  0.49936366  0.33285573
  -0.00063634  0.49936366  0.83285573
   0.49936366 -0.00063634  0.33285573
   0.49936366 -0.00063634  0.83285573
   0.49936366  0.49936366  0.33285573
   0.49936366  0.49936366  0.83285573
  -0.00063634  0.33285573 -0.00063634
  -0.00063634  0.33285573  0.49936366
  -0.00063634  0.83285573 -0.00063634
  -0.00063634  0.83285573  0.49936366
   0.49936366  0.33285573 -0.00063634
   0.49936366  0.33285573  0.49936366
   0.49936366  0.83285573 -0.00063634
   0.49936366  0.83285573  0.49936366
   0.16714427  0.00063634  0.00063634
   0.16714427  0.00063634  0.50063634
   0.16714427  0.50063634  0.00063634
   0.16714427  0.50063634  0.50063634
   0.66714427  0.00063634  0.00063634
   0.66714427  0.00063634  0.50063634
   0.66714427  0.50063634  0.00063634
   0.66714427  0.50063634  0.50063634
   0.00063634  0.00063634  0.16714427
   0.00063634  0.00063634  0.66714427
   0.00063634  0.50063634  0.16714427
   0.00063634  0.50063634  0.66714427
   0.50063634  0.00063634  0.16714427
   0.50063634  0.00063634  0.66714427
   0.50063634  0.50063634  0.16714427
   0.50063634  0.50063634  0.66714427
   0.00063634  0.16714427  0.00063634
   0.00063634  0.16714427  0.50063634
   0.00063634  0.66714427  0.00063634
   0.00063634  0.66714427  0.50063634
   0.50063634  0.16714427  0.00063634
   0.50063634  0.16714427  0.50063634
   0.50063634  0.66714427  0.00063634
   0.50063634  0.66714427  0.50063634
   0.31368893  0.31368893  0.31368893
   0.31368893  0.31368893  0.81368893
   0.31368893  0.81368893  0.31368893
   0.31368893  0.81368893  0.81368893
   0.81368893  0.31368893  0.31368893
   0.81368893  0.31368893  0.81368893
   0.81368893  0.81368893  0.31368893
   0.81368893  0.81368893  0.81368893
   0.18631107  0.18631107  0.18631107
   0.18631107  0.18631107  0.68631107
   0.18631107  0.68631107  0.18631107
   0.18631107  0.68631107  0.68631107
   0.68631107  0.18631107  0.18631107
   0.68631107  0.18631107  0.68631107
   0.68631107  0.68631107  0.18631107
   0.68631107  0.68631107  0.68631107
unknown system                          
            1
     9.120339    0.029112    4.107147
     2.666254    8.721957    4.107147
     0.039210    0.029113   10.002385
   B    C 
    96    16
Direct configuration=     5
   0.15930140  0.39976513  0.39976513
   0.15930140  0.39976513  0.89976513
   0.15930140  0.89976513  0.39976513
   0.15930140  0.89976513  0.89976513
   0.65930140  0.39976513  0.39976513
   0.65930140  0.39976513  0.89976513
   0.65930140  0.89976513  0.39976513
   0.65930140  0.89976513  0.89976513
   0.39976513  0.39976513  0.15930140
   0.39976513  0.39976513  0.65930140
   0.39976513  0.89976513  0.15930140
   0.39976513  0.89976513  0.65930140
   0.89976513  0.39976513  0.15930140
   0.89976513  0.39976513  0.65930140
   0.89976513  0.89976513  0.15930140
   0.89976513  0.89976513  0.65930140
   0.39976513  0.15930140  0.39976513
   0.39976513  0.15930140  0.89976513
   0.39976513  0.65930140  0.39976513
   0.39976513  0.65930140  0.89976513
   0.89976513  0.15930140  0.39976513
   0.89976513  0.15930140  0.89976513
   0.89976513  0.65930140  0.39976513
   0.89976513  0.65930140  0.89976513
   0.34069860  0.10023487  0.10023487
   0.34069860  0.10023487  0.60023487
   0.34069860  0.60023487  0.10023487
   0.34069860  0.60023487  0.60023487
   0.84069860  0.10023487  0.10023487
   0.84069860  0.10023487  0.60023487
   0.84069860  0.60023487  0.10023487
   0.84069860  0.60023487  0.60023487
   0.10023487  0.10023487  0.34069860
   0.10023487  0.10023487  0.84069860
   0.10023487  0.60023487  0.34069860
   0.10023487  0.60023487  0.84069860
   0.60023487  0.10023487  0.34069860
   0.60023487  0.10023487  0.84069860
   0.60023487  0.60023487  0.34069860
   0.60023487  0.60023487  0.84069860
   0.10023487  0.34069860  0.10023487
   0.10023487  0.34069860  0.60023487
   0.10023487  0.84069860  0.10023487
   0.10023487  0.84069860  0.60023487
   0.60023487  0.34069860  0.10023487
   0.60023487  0.34069860  0.60023487
   0.60023487  0.84069860  0.10023487
   0.60023487  0.84069860  0.60023487
   0.33281427 -0.00062273 -0.00062273
   0.33281427 -0.00062273  0.49937727
   0.33281427  0.49937727 -0.00062273
   0.33281427  0.49937727  0.49937727
   0.83281427 -0.00062273 -0.00062273
   0.83281427 -0.00062273  0.49937727
   0.83281427  0.49937727 -0.00062273
   0.83281427  0.49937727  0.49937727
  -0.00062273 -0.00062273  0.33281427
  -0.00062273 -0.00062273  0.83281427
  -0.00062273  0.49937727  0.33281427
  -0.00062273  0.49937727  0.83281427
   0.49937727 -0.00062273  0.33281427
   0.49937727 -0.00062273  0.83281427
   0.49937727  0.49937727  0.33281427
   0.49937727  0.49937727  0.83281427
  -0.00062273  0.33281427 -0.00062273
  -0.00062273  0.33281427  0.49937727
  -0.00062273  0.83281427 -0.00062273
  -0.00062273  0.83281427  0.49937727
   0.49937727  0.33281427 -0.00062273
   0.49937727  0.33281427  0.49937727
   0.49937727  0.83281427 -0.00062273
   0.49937727  0.83281427  0.49937727
   0.16718573  0.00062273  0.00062273
   0.16718573  0.00062273  0.50062273
   0.16718573  0.50062273  0.00062273
   0.16718573  0.50062273  0.50062273
   0.66718573  0.00062273  0.00062273
   0.66718573  0.00062273  0.50062273
   0.66718573  0.50062273  0.00062273
   0.66718573  0.50062273  0.50062273
   0.00062273  0.00062273  0.16718573
   0.00062273  0.00062273  0.66718573
   0.00062273  0.50062273  0.16718573
   0.00062273  0.50062273  0.66718573
   0.50062273  0.00062273  0.16718573
   0.50062273  0.00062273  0.66718573
   0.50062273  0.50062273  0.16718573
   0.50062273  0.50062273  0.66718573
   0.00062273  0.16718573  0.00062273
   0.00062273  0.16718573  0.50062273
   0.00062273  0.66718573  0.00062273
   0.00062273  0.66718573  0.50062273
   0.50062273  0.16718573  0.00062273
   0.50062273  0.16718573  0.50062273
   0.50062273  0.66718573  0.00062273
   0.50062273  0.66718573  0.50062273
   0.31372496  0.31372496  0.31372496
   0.31372496  0.31372496  0.81372496
   0.31372496  0.81372496  0.31372496
   0.31372496  0.81372496  0.81372496
   0.81372496  0.31372496  0.31372496
   0.81372496  0.31372496  0.81372496
   0.81372496  0.81372496  0.31372496
   0.81372496  0.81372496  0.81372496
   0.18627504  0.18627504  0.18627504
   0.18627504  0.18627504  0.68627504
   0.18627504  0.68627504  0.18627504
   0.18627504  0.68627504  0.68627504
   0.68627504  0.18627504  0.18627504
   0.68627504  0.18627504  0.68627504
   0.68627504  0.68627504  0.18627504
   0.68627504  0.68627504  0.68627504
unknown system                          
            1
     9.120715    0.030326    4.109104
     2.667525    8.721965    4.109104
     0.040845    0.030326   10.003524
   B    C 
    96    16
Direct configuration=     6
   0.15933250  0.39978851  0.39978851
   0.15933250  0.39978851  0.89978851
   0.15933250  0.89978851  0.39978851
   0.15933250  0.89978851  0.89978851
   0.65933250  0.39978851  0.39978851
   0.65933250  0.39978851  0.89978851
   0.65933250  0.89978851  0.39978851
   0.65933250  0.89978851  0.89978851
   0.39978851  0.39978851  0.15933250
   0.39978851  0.39978851  0.65933250
   0.39978851  0.89978851  0.15933250
   0.39978851  0.89978851  0.65933250
   0.89978851  0.39978851  0.15933250
   0.89978851  0.39978851  0.65933250
   0.89978851  0.89978851  0.15933250
   0.89978851  0.89978851  0.65933250
   0.39978851  0.15933250  0.39978851
   0.39978851  0.15933250  0.89978851
   0.39978851  0.65933250  0.39978851
   0.39978851  0.65933250  0.89978851
   0.89978851  0.15933250  0.39978851
   0.89978851  0.15933250  0.89978851
   0.89978851  0.65933250  0.39978851
   0.89978851  0.65933250  0.89978851
   0.34066750  0.10021149  0.10021149
   0.34066750  0.10021149  0.60021149
   0.34066750  0.60021149  0.10021149
   0.34066750  0.60021149  0.60021149
   0.84066750  0.10021149  0.10021149
   0.84066750  0.10021149  0.60021149
   0.84066750  0.60021149  0.10021149
   0.84066750  0.60021149  0.60021149
   0.10021149  0.10021149  0.34066750
   0.10021149  0.10021149  0.84066750
   0.10021149  0.60021149  0.34066750
   0.10021149  0.60021149  0.84066750
   0.60021149  0.10021149  0.34066750
   0.60021149  0.10021149  0.84066750
   0.60021149  0.60021149  0.34066750
   0.60021149  0.60021149  0.84066750
   0.10021149  0.34066750  0.10021149
   0.10021149  0.34066750  0.60021149
   0.10021149  0.84066750  0.10021149
   0.10021149  0.84066750  0.60021149
   0.60021149  0.34066750  0.10021149
   0.60021149  0.34066750  0.60021149
   0.60021149  0.84066750  0.10021149
   0.60021149  0.84066750  0.60021149
   0.33274350 -0.00059949 -0.00059949
   0.33274350 -0.00059949  0.49940051
   0.33274350  0.49940051 -0.00059949
   0.33274350  0.49940051  0.49940051
   0.83274350 -0.00059949 -0.00059949
   0.83274350 -0.00059949  0.49940051
   0.83274350  0.49940051 -0.00059949
   0.83274350  0.49940051  0.49940051
  -0.00059949 -0.00059949  0.33274350
  -0.00059949 -0.00059949  0.83274350
  -0.00059949  0.49940051  0.33274350
  -0.00059949  0.49940051  0.83274350
   0.49940051 -0.00059949  0.33274350
   0.49940051 -0.00059949  0.83274350
   0.49940051  0.49940051  0.33274350
   0.49940051  0.49940051  0.83274350
  -0.00059949  0.33274350 -0.00059949
  -0.00059949  0.33274350  0.49940051
  -0.00059949  0.83274350 -0.00059949
  -0.00059949  0.83274350  0.49940051
   0.49940051  0.33274350 -0.00059949
   0.49940051  0.33274350  0.49940051
   0.49940051  0.83274350 -0.00059949
   0.49940051  0.83274350  0.49940051
   0.16725650  0.00059949  0.00059949
   0.16725650  0.00059949  0.50059949
   0.16725650  0.50059949  0.00059949
   0.16725650  0.50059949  0.50059949
   0.66725650  0.00059949  0.00059949
   0.66725650  0.00059949  0.50059949
   0.66725650  0.50059949  0.00059949
   0.66725650  0.50059949  0.50059949
   0.00059949  0.00059949  0.16725650
   0.00059949  0.00059949  0.66725650
   0.00059949  0.50059949  0.16725650
   0.00059949  0.50059949  0.66725650
   0.50059949  0.00059949  0.16725650
   0.50059949  0.00059949  0.66725650
   0.50059949  0.50059949  0.16725650
   0.50059949  0.50059949  0.66725650
   0.00059949  0.16725650  0.00059949
   0.00059949  0.16725650  0.50059949
   0.00059949  0.66725650  0.00059949
   0.00059949  0.66725650  0.50059949
   0.50059949  0.16725650  0.00059949
   0.50059949  0.16725650  0.50059949
   0.50059949  0.66725650  0.00059949
   0.50059949  0.66725650  0.50059949
   0.31378645  0.31378645  0.31378645
   0.31378645  0.31378645  0.81378645
   0.31378645  0.81378645  0.31378645
   0.31378645  0.81378645  0.81378645
   0.81378645  0.31378645  0.31378645
   0.81378645  0.31378645  0.81378645
   0.81378645  0.81378645  0.31378645
   0.81378645  0.81378645  0.81378645
   0.18621355  0.18621355  0.18621355
   0.18621355  0.18621355  0.68621355
   0.18621355  0.68621355  0.18621355
   0.18621355  0.68621355  0.68621355
   0.68621355  0.18621355  0.18621355
   0.68621355  0.18621355  0.68621355
   0.68621355  0.68621355  0.18621355
   0.68621355  0.68621355  0.68621355
unknown system                          
            1
     9.118623    0.023548    4.098177
     2.660431    8.721924    4.098177
     0.031715    0.023548    9.997166
   B    C 
    96    16
Direct configuration=     7
   0.16000651  0.39944387  0.39944387
   0.16000651  0.39944387  0.89944387
   0.16000651  0.89944387  0.39944387
   0.16000651  0.89944387  0.89944387
   0.66000651  0.39944387  0.39944387
   0.66000651  0.39944387  0.89944387
   0.66000651  0.89944387  0.39944387
   0.66000651  0.89944387  0.89944387
   0.39944387  0.39944387  0.16000651
   0.39944387  0.39944387  0.66000651
   0.39944387  0.89944387  0.16000651
   0.39944387  0.89944387  0.66000651
   0.89944387  0.39944387  0.16000651
   0.89944387  0.39944387  0.66000651
   0.89944387  0.89944387  0.16000651
   0.89944387  0.89944387  0.66000651
   0.39944387  0.16000651  0.39944387
   0.39944387  0.16000651  0.89944387
   0.39944387  0.66000651  0.39944387
   0.39944387  0.66000651  0.89944387
   0.89944387  0.16000651  0.39944387
   0.89944387  0.16000651  0.89944387
   0.89944387  0.66000651  0.39944387
   0.89944387  0.66000651  0.89944387
   0.33999349  0.10055613  0.10055613
   0.33999349  0.10055613  0.60055613
   0.33999349  0.60055613  0.10055613
   0.33999349  0.60055613  0.60055613
   0.83999349  0.10055613  0.10055613
   0.83999349  0.10055613  0.60055613
   0.83999349  0.60055613  0.10055613
   0.83999349  0.60055613  0.60055613
   0.10055613  0.10055613  0.33999349
   0.10055613  0.10055613  0.83999349
   0.10055613  0.60055613  0.33999349
   0.10055613  0.60055613  0.83999349
   0.60055613  0.10055613  0.33999349
   0.60055613  0.10055613  0.83999349
   0.60055613  0.60055613  0.33999349
   0.60055613  0.60055613  0.83999349
   0.10055613  0.33999349  0.10055613
   0.10055613  0.33999349  0.60055613
   0.10055613  0.83999349  0.10055613
   0.10055613  0.83999349  0.60055613
   0.60055613  0.33999349  0.10055613
   0.60055613  0.33999349  0.60055613
   0.60055613  0.83999349  0.10055613
   0.60055613  0.83999349  0.60055613
   0.33284550 -0.00070263 -0.00070263
   0.33284550 -0.00070263  0.49929737
   0.33284550  0.49929737 -0.00070263
   0.33284550  0.49929737  0.49929737
   0.83284550 -0.00070263 -0.00070263
   0.83284550 -0.00070263  0.49929737
   0.83284550  0.49929737 -0.00070263
   0.83284550  0.49929737  0.49929737
  -0.00070263 -0.00070263  0.33284550
  -0.00070263 -0.00070263  0.83284550
  -0.00070263  0.49929737  0.33284550
  -0.00070263  0.49929737  0.83284550
   0.49929737 -0.00070263  0.33284550
   0.49929737 -0.00070263  0.83284550
   0.49929737  0.49929737  0.33284550
   0.49929737  0.49929737  0.83284550
  -0.00070263  0.33284550 -0.00070263
  -0.00070263  0.33284550  0.49929737
  -0.00070263  0.83284550 -0.00070263
  -0.00070263  0.83284550  0.49929737
   0.49929737  0.33284550 -0.00070263
   0.49929737  0.33284550  0.49929737
   0.49929737  0.83284550 -0.00070263