 112 112   0   0
  0.7855196E+01  0.1044806E-08  0.1037023E-08  0.1036270E-08  0.5000000E-15
   1.0000000000000000E-004
  CAR 
 unknown system                          
     13.23511483    -11.91383911  301      3.96381993      1.00000000
    -11.914  0.0000E+00  0.0000E+00
    -11.830  0.0000E+00  0.0000E+00
    -11.746  0.0000E+00  0.0000E+00
    -11.662  0.0000E+00  0.0000E+00
    -11.579  0.0000E+00  0.0000E+00
    -11.495  0.0000E+00  0.0000E+00
    -11.411  0.0000E+00  0.0000E+00
    -11.327  0.0000E+00  0.0000E+00
    -11.243  0.0000E+00  0.0000E+00
    -11.159  0.0000E+00  0.0000E+00
    -11.076  0.0000E+00  0.0000E+00
    -10.992  0.0000E+00  0.0000E+00
    -10.908  0.0000E+00  0.0000E+00
    -10.824  0.0000E+00  0.0000E+00
    -10.740  0.3586E-03  0.3644E-05
    -10.656  0.5043E-02  0.1922E-03
    -10.573  0.1515E-01  0.1001E-02
    -10.489  0.5859E-01  0.3363E-02
    -10.405  0.6364E-01  0.1204E-01
    -10.321  0.5585E-02  0.1319E-01
    -10.237  0.0000E+00  0.1333E-01
    -10.153  0.4336E-01  0.1380E-01
    -10.070  0.9327E-01  0.2094E-01
     -9.986  0.1292E+00  0.3029E-01
     -9.902  0.5439E-01  0.3881E-01
     -9.818  0.1295E+00  0.4860E-01
     -9.734  0.0000E+00  0.5333E-01
     -9.650  0.0000E+00  0.5333E-01
     -9.567  0.0000E+00  0.5333E-01
     -9.483  0.0000E+00  0.5333E-01
     -9.399  0.0000E+00  0.5333E-01
     -9.315  0.0000E+00  0.5333E-01
     -9.231  0.0000E+00  0.5333E-01
     -9.147  0.0000E+00  0.5333E-01
     -9.064  0.0000E+00  0.5333E-01
     -8.980  0.0000E+00  0.5333E-01
     -8.896  0.9959E-03  0.5335E-01
     -8.812  0.9415E-02  0.5372E-01
     -8.728  0.2663E-01  0.5517E-01
     -8.644  0.6332E-01  0.5876E-01
     -8.561  0.1162E+00  0.6621E-01
     -8.477  0.1284E+00  0.7998E-01
     -8.393  0.1535E-01  0.8238E-01
     -8.309  0.1949E-01  0.8384E-01
     -8.225  0.2361E-01  0.8564E-01
     -8.141  0.3010E-01  0.8780E-01
     -8.058  0.8812E-01  0.9311E-01
     -7.974  0.3548E-01  0.9899E-01
     -7.890  0.1654E+00  0.1079E+00
     -7.806  0.8371E-01  0.1169E+00
     -7.722  0.6389E-01  0.1231E+00
     -7.639  0.4499E-01  0.1277E+00
     -7.555  0.2716E-01  0.1307E+00
     -7.471  0.1354E-01  0.1323E+00
     -7.387  0.5229E-02  0.1331E+00
     -7.303  0.7382E-01  0.1352E+00
     -7.219  0.9765E-01  0.1433E+00
     -7.136  0.6283E-01  0.1476E+00
     -7.052  0.5102E-01  0.1553E+00
     -6.968  0.2446E-01  0.1584E+00
     -6.884  0.7906E-02  0.1597E+00
     -6.800  0.6773E-03  0.1600E+00
     -6.716  0.0000E+00  0.1600E+00
     -6.633  0.0000E+00  0.1600E+00
     -6.549  0.5357E-01  0.1627E+00
     -6.465  0.6089E-01  0.1676E+00
     -6.381  0.6899E-01  0.1730E+00
     -6.297  0.2742E+00  0.1800E+00
     -6.213  0.2745E-01  0.1872E+00
     -6.130  0.6637E-01  0.1918E+00
     -6.046  0.7093E-01  0.1976E+00
     -5.962  0.2419E+00  0.2089E+00
     -5.878  0.6452E-01  0.2173E+00
     -5.794  0.9434E-01  0.2244E+00
     -5.710  0.6971E-01  0.2317E+00
     -5.627  0.7524E-01  0.2368E+00
     -5.543  0.1068E+00  0.2447E+00
     -5.459  0.1150E+01  0.2561E+00
     -5.375  0.5028E-01  0.2603E+00
     -5.291  0.7566E-01  0.2656E+00
     -5.207  0.6121E-01  0.2713E+00
     -5.124  0.3531E-01  0.2733E+00
     -5.040  0.5435E-01  0.2778E+00
     -4.956  0.1425E-01  0.2801E+00
     -4.872  0.5010E-01  0.2839E+00
     -4.788  0.7634E-01  0.2869E+00
     -4.704  0.9253E-01  0.2980E+00
     -4.621  0.6877E-01  0.3043E+00
     -4.537  0.5563E-01  0.3095E+00
     -4.453  0.4262E-01  0.3137E+00
     -4.369  0.2973E-01  0.3167E+00
     -4.285  0.1696E-01  0.3186E+00
     -4.201  0.6493E-02  0.3196E+00
     -4.118  0.2249E-02  0.3199E+00
     -4.034  0.2033E-03  0.3200E+00
     -3.950  0.0000E+00  0.3200E+00
     -3.866  0.5387E-03  0.3200E+00
     -3.782  0.3603E-02  0.3202E+00
     -3.699  0.1233E-01  0.3207E+00
     -3.615  0.2819E-01  0.3224E+00
     -3.531  0.4513E-01  0.3255E+00
     -3.447  0.6317E-01  0.3300E+00
     -3.363  0.9958E-01  0.3363E+00
     -3.279  0.8483E-01  0.3453E+00
     -3.196  0.3706E-01  0.3496E+00
     -3.112  0.2578E-01  0.3518E+00
     -3.028  0.8925E-01  0.3579E+00
     -2.944  0.8178E-01  0.3637E+00
     -2.860  0.8399E-01  0.3707E+00
     -2.776  0.8374E-01  0.3777E+00
     -2.693  0.8969E-01  0.3851E+00
     -2.609  0.8038E-01  0.3922E+00
     -2.525  0.3784E-01  0.3971E+00
     -2.441  0.9654E-01  0.4036E+00
     -2.357  0.1246E+00  0.4133E+00
     -2.273  0.5913E-01  0.4193E+00
     -2.190  0.1054E+00  0.4250E+00
     -2.106  0.1556E+00  0.4369E+00
     -2.022  0.1511E+00  0.4460E+00
     -1.938  0.1795E+00  0.4627E+00
     -1.854  0.1414E+00  0.4752E+00
     -1.770  0.1308E+00  0.4867E+00
     -1.687  0.2277E-01  0.4926E+00
     -1.603  0.3840E-01  0.4941E+00
     -1.519  0.1271E+00  0.5018E+00
     -1.435  0.1305E+00  0.5130E+00
     -1.351  0.7737E-01  0.5220E+00
     -1.267  0.1028E+00  0.5313E+00
     -1.184  0.5894E-01  0.5365E+00
     -1.100  0.6961E-01  0.5411E+00
     -1.016  0.1697E+00  0.5537E+00
     -0.932  0.1500E+00  0.5672E+00
     -0.848  0.1170E+00  0.5785E+00
     -0.764  0.2327E+00  0.5883E+00
     -0.681  0.4660E-01  0.5985E+00
     -0.597  0.1715E-01  0.6007E+00
     -0.513  0.3737E-01  0.6029E+00
     -0.429  0.5094E-01  0.6066E+00
     -0.345  0.5861E-01  0.6112E+00
     -0.261  0.6488E-01  0.6164E+00
     -0.178  0.6804E-01  0.6220E+00
     -0.094  0.6241E-01  0.6290E+00
     -0.010  0.3565E-01  0.6314E+00
      0.074  0.5139E-01  0.6351E+00
      0.158  0.1085E+00  0.6417E+00
      0.241  0.1049E+00  0.6504E+00
      0.325  0.3839E+00  0.6632E+00
      0.409  0.2586E+00  0.6844E+00
      0.493  0.1887E+00  0.7049E+00
      0.577  0.1150E+00  0.7142E+00
      0.661  0.9585E-01  0.7216E+00
      0.744  0.9584E-01  0.7297E+00
      0.828  0.8294E-01  0.7372E+00
      0.912  0.1809E+00  0.7455E+00
      0.996  0.1732E+00  0.7578E+00
      1.080  0.2670E+00  0.7732E+00
      1.164  0.3976E-01  0.7867E+00
      1.247  0.5290E+00  0.8084E+00
      1.331  0.3254E+00  0.8278E+00
      1.415  0.8754E-01  0.8398E+00
      1.499  0.6681E-01  0.8461E+00
      1.583  0.6165E-01  0.8515E+00
      1.667  0.5701E-01  0.8564E+00
      1.750  0.4977E-01  0.8609E+00
      1.834  0.3831E-01  0.8647E+00
      1.918  0.4443E-01  0.8672E+00
      2.002  0.4235E+00  0.8846E+00
      2.086  0.2874E+00  0.9118E+00
      2.170  0.3862E+00  0.9363E+00
      2.253  0.1309E+00  0.9565E+00
      2.337  0.1891E+00  0.9714E+00
      2.421  0.8206E-01  0.9833E+00
      2.505  0.1120E+00  0.9948E+00
      2.589  0.1736E+00  0.1002E+01
      2.673  0.2535E+00  0.1022E+01
      2.756  0.3731E+00  0.1048E+01
      2.840  0.1784E+00  0.1061E+01
      2.924  0.1559E+00  0.1076E+01
      3.008  0.8645E-01  0.1087E+01
      3.092  0.2142E+00  0.1098E+01
      3.176  0.3040E-01  0.1106E+01
      3.259  0.5501E-02  0.1107E+01
      3.343  0.6293E-01  0.1109E+01
      3.427  0.1529E+00  0.1118E+01
      3.511  0.1582E+00  0.1135E+01
      3.595  0.9146E-01  0.1141E+01
      3.679  0.1094E+00  0.1150E+01
      3.762  0.8180E-01  0.1158E+01
      3.846  0.4903E-01  0.1163E+01
      3.930  0.1309E+00  0.1170E+01
      4.014  0.5794E-02  0.1174E+01
      4.098  0.8528E-02  0.1175E+01
      4.181  0.1177E-01  0.1176E+01
      4.265  0.1551E-01  0.1177E+01
      4.349  0.1975E-01  0.1178E+01
      4.433  0.5065E-01  0.1181E+01
      4.517  0.4028E-01  0.1185E+01
      4.601  0.5521E-02  0.1187E+01
      4.684  0.0000E+00  0.1187E+01
      4.768  0.0000E+00  0.1187E+01
      4.852  0.0000E+00  0.1187E+01
      4.936  0.1258E+00  0.1190E+01
      5.020  0.1531E+00  0.1204E+01
      5.104  0.1155E+00  0.1212E+01
      5.187  0.9268E-01  0.1221E+01
      5.271  0.3976E-01  0.1227E+01
      5.355  0.0000E+00  0.1227E+01
      5.439  0.3949E-02  0.1227E+01
      5.523  0.2880E-01  0.1228E+01
      5.607  0.4612E-01  0.1231E+01
      5.690  0.4992E-01  0.1235E+01
      5.774  0.4020E-01  0.1239E+01
      5.858  0.9102E-01  0.1246E+01
      5.942  0.6576E-01  0.1251E+01
      6.026  0.7351E-01  0.1257E+01
      6.110  0.7929E-01  0.1262E+01
      6.193  0.9279E-01  0.1273E+01
      6.277  0.2753E-01  0.1276E+01
      6.361  0.1773E-01  0.1278E+01
      6.445  0.1027E-01  0.1279E+01
      6.529  0.4829E-02  0.1280E+01
      6.613  0.1418E-02  0.1280E+01
      6.696  0.3398E-04  0.1280E+01
      6.780  0.0000E+00  0.1280E+01
      6.864  0.0000E+00  0.1280E+01
      6.948  0.0000E+00  0.1280E+01
      7.032  0.0000E+00  0.1280E+01
      7.116  0.0000E+00  0.1280E+01
      7.199  0.0000E+00  0.1280E+01
      7.283  0.0000E+00  0.1280E+01
      7.367  0.0000E+00  0.1280E+01
      7.451  0.0000E+00  0.1280E+01
      7.535  0.0000E+00  0.1280E+01
      7.619  0.0000E+00  0.1280E+01
      7.702  0.0000E+00  0.1280E+01
      7.786  0.0000E+00  0.1280E+01
      7.870  0.3672E-03  0.1280E+01
      7.954  0.2367E-02  0.1280E+01
      8.038  0.6108E-02  0.1280E+01
      8.121  0.1159E-01  0.1281E+01
      8.205  0.1881E-01  0.1282E+01
      8.289  0.3560E-01  0.1285E+01
      8.373  0.4485E-01  0.1288E+01
      8.457  0.2404E-01  0.1291E+01
      8.541  0.4160E-01  0.1293E+01
      8.624  0.9320E-01  0.1299E+01
      8.708  0.8721E-01  0.1307E+01
      8.792  0.7050E-01  0.1314E+01
      8.876  0.8112E-01  0.1320E+01
      8.960  0.6545E-01  0.1326E+01
      9.044  0.4044E-01  0.1331E+01
      9.127  0.3468E-01  0.1334E+01
      9.211  0.5013E-01  0.1337E+01
      9.295  0.8507E-01  0.1343E+01
      9.379  0.2310E+00  0.1359E+01
      9.463  0.4259E-01  0.1365E+01
      9.547  0.5315E-01  0.1369E+01
      9.630  0.5770E-01  0.1374E+01
      9.714  0.5010E-01  0.1379E+01
      9.798  0.1268E+00  0.1383E+01
      9.882  0.7674E-01  0.1389E+01
      9.966  0.2159E+00  0.1400E+01
     10.050  0.1282E+00  0.1415E+01
     10.133  0.1092E+00  0.1425E+01
     10.217  0.7066E-01  0.1432E+01
     10.301  0.8727E-01  0.1441E+01
     10.385  0.2692E-01  0.1444E+01
     10.469  0.3723E-01  0.1446E+01
     10.553  0.4498E-01  0.1450E+01
     10.636  0.5026E-01  0.1454E+01
     10.720  0.5426E-01  0.1458E+01
     10.804  0.5701E-01  0.1463E+01
     10.888  0.5849E-01  0.1468E+01
     10.972  0.5870E-01  0.1473E+01
     11.056  0.5764E-01  0.1478E+01
     11.139  0.5047E-01  0.1482E+01
     11.223  0.5973E-01  0.1489E+01
     11.307  0.9549E-01  0.1494E+01
     11.391  0.1254E+00  0.1506E+01
     11.475  0.7308E-01  0.1513E+01
     11.559  0.7168E-01  0.1519E+01
     11.642  0.7284E-01  0.1525E+01
     11.726  0.3911E-01  0.1529E+01
     11.810  0.3376E-01  0.1532E+01
     11.894  0.1585E+00  0.1539E+01
     11.978  0.3632E-01  0.1547E+01
     12.061  0.4759E-01  0.1553E+01
     12.145  0.0000E+00  0.1553E+01
     12.229  0.0000E+00  0.1553E+01
     12.313  0.0000E+00  0.1553E+01
     12.397  0.0000E+00  0.1553E+01
     12.481  0.0000E+00  0.1553E+01
     12.564  0.0000E+00  0.1553E+01
     12.648  0.0000E+00  0.1553E+01
     12.732  0.0000E+00  0.1553E+01
     12.816  0.0000E+00  0.1553E+01
     12.900  0.0000E+00  0.1553E+01
     12.984  0.0000E+00  0.1553E+01
     13.067  0.0000E+00  0.1553E+01
     13.151  0.0000E+00  0.1553E+01
     13.235  0.0000E+00  0.1553E+01
