       N       E                     dE             d eps       ncg     rms          rms(c)
DAV:   1     0.135203667348E+04    0.13520E+04   -0.19672E+05  3728   0.176E+03
DAV:   2    -0.711771985603E+03   -0.20638E+04   -0.19466E+04  4664   0.305E+02
DAV:   3    -0.836167065335E+03   -0.12440E+03   -0.12116E+03  4416   0.664E+01
DAV:   4    -0.839022199626E+03   -0.28551E+01   -0.28388E+01  4336   0.105E+01
DAV:   5    -0.839101232503E+03   -0.79033E-01   -0.78905E-01  4352   0.167E+00    0.382E+01
RMM:   6    -0.804064508434E+03    0.35037E+02   -0.31915E+01  3728   0.828E+00    0.214E+01
RMM:   7    -0.793688127542E+03    0.10376E+02   -0.31417E+01  3728   0.865E+00    0.499E+00
RMM:   8    -0.793867496589E+03   -0.17937E+00   -0.33485E+00  3728   0.353E+00    0.223E+00
RMM:   9    -0.793931664050E+03   -0.64167E-01   -0.33222E-01  3728   0.115E+00    0.750E-01
RMM:  10    -0.793907054287E+03    0.24610E-01   -0.11405E-01  3728   0.559E-01    0.281E-01
RMM:  11    -0.793912894857E+03   -0.58406E-02   -0.22238E-02  3748   0.263E-01    0.939E-02
RMM:  12    -0.793912700906E+03    0.19395E-03   -0.52558E-03  3826   0.114E-01    0.420E-02
RMM:  13    -0.793912406401E+03    0.29451E-03   -0.10734E-03  3743   0.568E-02    0.263E-02
RMM:  14    -0.793912929801E+03   -0.52340E-03   -0.36856E-04  3729   0.300E-02    0.645E-03
RMM:  15    -0.793912907607E+03    0.22194E-04   -0.79252E-05  3802   0.147E-02    0.607E-03
RMM:  16    -0.793912951914E+03   -0.44307E-04   -0.17892E-05  3696   0.651E-03    0.199E-03
RMM:  17    -0.793912943983E+03    0.79313E-05   -0.29252E-06  2614   0.274E-03    0.129E-03
RMM:  18    -0.793912924804E+03    0.19179E-04   -0.77711E-07  2313   0.143E-03    0.214E-04
RMM:  19    -0.793912925763E+03   -0.95937E-06   -0.15712E-07  1955   0.699E-04
   1 F= -.79391293E+03 E0= -.79391293E+03  d E =-.793913E+03
       N       E                     dE             d eps       ncg     rms          rms(c)
DAV:   1    -0.794098412355E+03   -0.18549E+00   -0.89657E+00  4040   0.609E+00    0.159E+00
RMM:   2    -0.794006644835E+03    0.91768E-01   -0.29840E-01  3728   0.116E+00    0.853E-01
RMM:   3    -0.793982869338E+03    0.23775E-01   -0.73648E-02  3729   0.503E-01    0.260E-01
RMM:   4    -0.793981808614E+03    0.10607E-02   -0.14771E-02  3729   0.222E-01    0.853E-02
RMM:   5    -0.793982184561E+03   -0.37595E-03   -0.16969E-03  3798   0.825E-02    0.337E-02
RMM:   6    -0.793982329845E+03   -0.14528E-03   -0.48573E-04  3779   0.394E-02    0.114E-02
RMM:   7    -0.793982417602E+03   -0.87756E-04   -0.94902E-05  3788   0.179E-02    0.571E-03
RMM:   8    -0.793982436918E+03   -0.19316E-04   -0.23309E-05  3798   0.847E-03    0.201E-03
RMM:   9    -0.793982427153E+03    0.97648E-05   -0.54024E-06  3057   0.404E-03    0.115E-03
RMM:  10    -0.793982433206E+03   -0.60537E-05   -0.11184E-06  2331   0.188E-03    0.273E-04
RMM:  11    -0.793982436448E+03   -0.32419E-05   -0.25194E-07  2048   0.894E-04    0.128E-04
RMM:  12    -0.793982436144E+03    0.30472E-06   -0.56519E-08  1413   0.508E-04
   2 F= -.79398244E+03 E0= -.79398244E+03  d E =-.695104E-01
       N       E                     dE             d eps       ncg     rms          rms(c)
DAV:   1    -0.794000933340E+03   -0.18497E-01   -0.84502E-01  3976   0.187E+00    0.493E-01
RMM:   2    -0.794001391672E+03   -0.45833E-03   -0.28122E-02  3728   0.357E-01    0.260E-01
RMM:   3    -0.793999685242E+03    0.17064E-02   -0.66981E-03  3729   0.153E-01    0.821E-02
RMM:   4    -0.793999760157E+03   -0.74916E-04   -0.14425E-03  3729   0.687E-02    0.257E-02
RMM:   5    -0.793999628265E+03    0.13189E-03   -0.15081E-04  3782   0.251E-02    0.100E-02
RMM:   6    -0.793999604743E+03    0.23522E-04   -0.44004E-05  3758   0.118E-02    0.356E-03
RMM:   7    -0.793999578540E+03    0.26203E-04   -0.90295E-06  3540   0.553E-03    0.195E-03
RMM:   8    -0.793999573304E+03    0.52359E-05   -0.21255E-06  2469   0.263E-03    0.640E-04
RMM:   9    -0.793999577674E+03   -0.43702E-05   -0.47410E-07  2295   0.120E-03    0.288E-04
RMM:  10    -0.793999575732E+03    0.19424E-05   -0.97487E-08  1689   0.603E-04    0.107E-04
RMM:  11    -0.793999573439E+03    0.22926E-05   -0.10128E-08  1009   0.394E-04    0.371E-05
RMM:  12    -0.793999574142E+03   -0.70304E-06   -0.20081E-10   796   0.358E-04
   3 F= -.79399957E+03 E0= -.79399957E+03  d E =-.866484E-01
       N       E                     dE             d eps       ncg     rms          rms(c)
DAV:   1    -0.793998851105E+03    0.72233E-03   -0.18516E+00  4008   0.298E+00    0.348E-01
RMM:   2    -0.793996405271E+03    0.24458E-02   -0.32721E-02  3728   0.388E-01    0.206E-01
RMM:   3    -0.793996157258E+03    0.24801E-03   -0.74891E-03  3729   0.162E-01    0.647E-02
RMM:   4    -0.793996321469E+03   -0.16421E-03   -0.10700E-03  3801   0.638E-02    0.339E-02
RMM:   5    -0.793996412451E+03   -0.90982E-04   -0.22149E-04  3747   0.299E-02    0.722E-03
RMM:   6    -0.793996390701E+03    0.21749E-04   -0.46822E-05  3785   0.129E-02    0.579E-03
RMM:   7    -0.793996432126E+03   -0.41425E-04   -0.10103E-05  3515   0.608E-03    0.145E-03
RMM:   8    -0.793996413834E+03    0.18292E-04   -0.22056E-06  2551   0.268E-03    0.822E-04
RMM:   9    -0.793996415890E+03   -0.20553E-05   -0.48508E-07  2269   0.126E-03    0.400E-04
RMM:  10    -0.793996418996E+03   -0.31061E-05   -0.11552E-07  1826   0.652E-04    0.910E-05
RMM:  11    -0.793996418209E+03    0.78685E-06   -0.14974E-08  1091   0.402E-04
   4 F= -.79399642E+03 E0= -.79399642E+03  d E =0.315593E-02
       N       E                     dE             d eps       ncg     rms          rms(c)
DAV:   1    -0.794004054141E+03   -0.76351E-02   -0.77124E-01  4000   0.193E+00    0.224E-01
RMM:   2    -0.794005462599E+03   -0.14085E-02   -0.13768E-02  3728   0.251E-01    0.132E-01
RMM:   3    -0.794005151757E+03    0.31084E-03   -0.30572E-03  3729   0.104E-01    0.427E-02
RMM:   4    -0.794005112154E+03    0.39603E-04   -0.45238E-04  3807   0.411E-02    0.216E-02
RMM:   5    -0.794005041808E+03    0.70347E-04   -0.89169E-05  3748   0.190E-02    0.462E-03
RMM:   6    -0.794005064840E+03   -0.23032E-04   -0.18949E-05  3775   0.823E-03    0.368E-03
RMM:   7    -0.794005037053E+03    0.27787E-04   -0.40920E-06  2883   0.389E-03    0.973E-04
RMM:   8    -0.794005048835E+03   -0.11782E-04   -0.87167E-07  2310   0.169E-03    0.491E-04
RMM:   9    -0.794005047999E+03    0.83606E-06   -0.21359E-07  2056   0.836E-04
   5 F= -.79400505E+03 E0= -.79400505E+03  d E =-.547386E-02
       N       E                     dE             d eps       ncg     rms          rms(c)
DAV:   1    -0.794004317257E+03    0.73158E-03   -0.21722E-01  3992   0.102E+00    0.120E-01
RMM:   2    -0.794003506963E+03    0.81029E-03   -0.38928E-03  3728   0.133E-01    0.703E-02
RMM:   3    -0.794003532651E+03   -0.25688E-04   -0.87943E-04  3729   0.553E-02    0.225E-02
RMM:   4    -0.794003574507E+03   -0.41856E-04   -0.12797E-04  3804   0.219E-02    0.116E-02
RMM:   5    -0.794003609446E+03   -0.34939E-04   -0.25859E-05  3747   0.102E-02    0.248E-03
RMM:   6    -0.794003599362E+03    0.10083E-04   -0.55158E-06  3081   0.442E-03    0.200E-03
RMM:   7    -0.794003614051E+03   -0.14689E-04   -0.11389E-06  2328   0.204E-03    0.507E-04
RMM:   8    -0.794003607984E+03    0.60670E-05   -0.24213E-07  2158   0.900E-04    0.244E-04
RMM:   9    -0.794003607943E+03    0.40564E-07   -0.49306E-08  1400   0.496E-04
   6 F= -.79400361E+03 E0= -.79400361E+03  d E =-.403380E-02
       N       E                     dE             d eps       ncg     rms          rms(c)
DAV:   1    -0.793996153019E+03    0.74550E-02   -0.65932E-01  4020   0.171E+00    0.233E-01
RMM:   2    -0.793995735828E+03    0.41719E-03   -0.13950E-02  3728   0.255E-01    0.133E-01
RMM:   3    -0.793996161829E+03   -0.42600E-03   -0.35200E-03  3734   0.112E-01    0.317E-02
RMM:   4    -0.793996160164E+03    0.16649E-05   -0.39338E-04  3771   0.417E-02    0.205E-02
RMM:   5    -0.793996193176E+03   -0.33012E-04   -0.92973E-05  3760   0.194E-02    0.538E-03
RMM:   6    -0.793996199406E+03   -0.62301E-05   -0.17181E-05  3783   0.795E-03    0.380E-03
RMM:   7    -0.793996210516E+03   -0.11110E-04   -0.37707E-06  2734   0.366E-03    0.146E-03
RMM:   8    -0.793996198142E+03    0.12374E-04   -0.73024E-07  2314   0.159E-03    0.484E-04
RMM:   9    -0.793996198226E+03   -0.84347E-07   -0.17339E-07  1938   0.771E-04
   7 F= -.79399620E+03 E0= -.79399620E+03  d E =0.740972E-02
       N       E                     dE             d eps       ncg     rms          rms(c)
DAV:   1    -0.793999664553E+03   -0.34664E-02   -0.41445E-02  3984   0.429E-01    0.595E-02
RMM:   2    -0.793999705285E+03   -0.40732E-04   -0.89650E-04  3728   0.643E-02    0.338E-02
RMM:   3    -0.793999494775E+03    0.21051E-03   -0.21003E-04  3736   0.274E-02    0.949E-03
RMM:   4    -0.793999496893E+03   -0.21177E-05   -0.25413E-05  3767   0.104E-02    0.577E-03
RMM:   5    -0.793999482893E+03    0.14000E-04   -0.58857E-06  3467   0.489E-03    0.188E-03
RMM:   6    -0.793999484222E+03   -0.13291E-05   -0.11334E-06  2330   0.205E-03    0.135E-03
RMM:   7    -0.793999481533E+03    0.26891E-05   -0.27684E-07  2247   0.985E-04    0.423E-04
RMM:   8    -0.793999484215E+03   -0.26823E-05   -0.42059E-08  1234   0.491E-04    0.192E-04
RMM:   9    -0.793999484109E+03    0.10583E-06   -0.73660E-09   898   0.391E-04
   8 F= -.79399948E+03 E0= -.79399948E+03  d E =0.412383E-02
       N       E                     dE             d eps       ncg     rms          rms(c)
DAV:   1    -0.794000581900E+03   -0.10977E-02   -0.90142E-02  3935   0.639E-01    0.108E-01
RMM:   2    -0.793999326204E+03    0.12557E-02   -0.18138E-03  3728   0.929E-02    0.592E-02
RMM:   3    -0.793999479435E+03   -0.15323E-03   -0.38118E-04  3741   0.382E-02    0.241E-02
RMM:   4    -0.793999490769E+03   -0.11334E-04   -0.67358E-05  3745   0.160E-02    0.884E-03
RMM:   5    -0.793999505317E+03   -0.14548E-04   -0.10230E-05  3731   0.657E-03    0.313E-03
RMM:   6    -0.793999492979E+03    0.12338E-04   -0.23471E-06  2502   0.298E-03    0.109E-03
RMM:   7    -0.793999498673E+03   -0.56942E-05   -0.45217E-07  2294   0.128E-03    0.515E-04
RMM:   8    -0.793999497145E+03    0.15287E-05   -0.10480E-07  1833   0.644E-04    0.114E-04
RMM:   9    -0.793999497031E+03    0.11331E-06   -0.95093E-09   965   0.384E-04
   9 F= -.79399950E+03 E0= -.79399950E+03  d E =-.129218E-04
       N       E                     dE             d eps       ncg     rms          rms(c)
DAV:   1    -0.793999459728E+03    0.37417E-04   -0.35968E-03  4144   0.127E-01    0.207E-02
RMM:   2    -0.793999245190E+03    0.21454E-03   -0.72068E-05  3728   0.185E-02    0.110E-02
RMM:   3    -0.793999282408E+03   -0.37218E-04   -0.13868E-05  3728   0.739E-03    0.452E-03
RMM:   4    -0.793999285904E+03   -0.34960E-05   -0.24270E-06  2405   0.306E-03    0.170E-03
RMM:   5    -0.793999288593E+03   -0.26887E-05   -0.34466E-07  2240   0.117E-03    0.577E-04
RMM:   6    -0.793999285713E+03    0.28795E-05   -0.61754E-08  1556   0.563E-04    0.181E-04
RMM:   7    -0.793999286747E+03   -0.10338E-05   -0.55074E-09   836   0.375E-04    0.530E-05
RMM:   8    -0.793999286781E+03   -0.33539E-07   -0.51197E-11   652   0.350E-04
  10 F= -.79399929E+03 E0= -.79399929E+03  d E =0.197329E-03
       N       E                     dE             d eps       ncg     rms          rms(c)
DAV:   1    -0.793998746132E+03    0.54061E-03   -0.31830E-02  3885   0.389E-01    0.546E-02
RMM:   2    -0.793999174396E+03   -0.42826E-03   -0.65195E-04  3728   0.537E-02    0.295E-02
RMM:   3    -0.793999126772E+03    0.47624E-04   -0.11710E-04  3729   0.213E-02    0.118E-02
RMM:   4    -0.793999099391E+03    0.27381E-04   -0.20124E-05  3772   0.894E-03    0.404E-03
RMM:   5    -0.793999088201E+03    0.11190E-04   -0.35608E-06  2732   0.382E-03    0.136E-03
RMM:   6    -0.793999093239E+03   -0.50389E-05   -0.67903E-07  2301   0.162E-03    0.494E-04
RMM:   7    -0.793999091509E+03    0.17305E-05   -0.14890E-07  2030   0.762E-04    0.190E-04
RMM:   8    -0.793999091615E+03   -0.10562E-06   -0.21842E-08  1120   0.420E-04
  11 F= -.79399909E+03 E0= -.79399909E+03  d E =0.195166E-03
       N       E                     dE             d eps       ncg     rms          rms(c)
DAV:   1    -0.793999285202E+03   -0.19369E-03   -0.15982E-03  3944   0.865E-02    0.119E-02
RMM:   2    -0.793999186775E+03    0.98427E-04   -0.31683E-05  3728   0.119E-02    0.642E-03
RMM:   3    -0.793999196058E+03   -0.92829E-05   -0.54356E-06  3437   0.465E-03    0.266E-03
RMM:   4    -0.793999202066E+03   -0.60081E-05   -0.92921E-07  2204   0.195E-03    0.919E-04
RMM:   5    -0.793999204756E+03   -0.26894E-05   -0.15779E-07  1949   0.785E-04    0.298E-04
RMM:   6    -0.793999203681E+03    0.10745E-05   -0.20392E-08   849   0.394E-04    0.868E-05
RMM:   7    -0.793999203606E+03    0.75029E-07   -0.98659E-10   501   0.328E-04
  12 F= -.79399920E+03 E0= -.79399920E+03  d E =0.831745E-04
       N       E                     dE             d eps       ncg     rms          rms(c)
DAV:   1    -0.793999042975E+03    0.16071E-03   -0.86072E-03  3886   0.201E-01    0.311E-02
RMM:   2    -0.793999251883E+03   -0.20891E-03   -0.16399E-04  3728   0.273E-02    0.165E-02
RMM:   3    -0.793999228907E+03    0.22976E-04   -0.32548E-05  3729   0.112E-02    0.650E-03
RMM:   4    -0.793999212121E+03    0.16786E-04   -0.53133E-06  3341   0.460E-03    0.217E-03
RMM:   5    -0.793999206871E+03    0.52492E-05   -0.89283E-07  2297   0.191E-03    0.771E-04
RMM:   6    -0.793999209279E+03   -0.24072E-05   -0.19125E-07  2184   0.813E-04    0.245E-04
RMM:   7    -0.793999209271E+03    0.75338E-08   -0.26334E-08  1130   0.409E-04
  13 F= -.79399921E+03 E0= -.79399921E+03  d E =-.566491E-05
       N       E                     dE             d eps       ncg     rms          rms(c)
DAV:   1    -0.793998862097E+03    0.34718E-03   -0.12196E-02  3869   0.240E-01    0.365E-02
RMM:   2    -0.793999121659E+03   -0.25956E-03   -0.23602E-04  3728   0.326E-02    0.193E-02
RMM:   3    -0.793999097291E+03    0.24368E-04   -0.45856E-05  3729   0.133E-02    0.789E-03
RMM:   4    -0.793999076468E+03    0.20823E-04   -0.76287E-06  3669   0.547E-03    0.281E-03
RMM:   5    -0.793999068896E+03    0.75716E-05   -0.13771E-06  2330   0.236E-03    0.101E-03
RMM:   6    -0.793999071439E+03   -0.25427E-05   -0.26769E-07  2260   0.971E-04    0.418E-04
RMM:   7    -0.793999072167E+03   -0.72817E-06   -0.44812E-08  1307   0.492E-04
  14 F= -.79399907E+03 E0= -.79399907E+03  d E =0.131439E-03
       N       E                     dE             d eps       ncg     rms          rms(c)
DAV:   1    -0.793999522778E+03   -0.45134E-03   -0.28796E-03  3959   0.116E-01    0.189E-02
RMM:   2    -0.793999199806E+03    0.32297E-03   -0.73829E-05  3728   0.183E-02    0.925E-03
RMM:   3    -0.793999238841E+03   -0.39035E-04   -0.11742E-05  3724   0.682E-03    0.448E-03
RMM:   4    -0.793999256182E+03   -0.17341E-04   -0.22873E-06  2391   0.285E-03    0.146E-03
RMM:   5    -0.793999259846E+03   -0.36641E-05   -0.32480E-07  2217   0.110E-03    0.391E-04
RMM:   6    -0.793999258499E+03    0.13468E-05   -0.51920E-08  1396   0.512E-04    0.167E-04
RMM:   7    -0.793999259131E+03   -0.63111E-06   -0.28359E-09   774   0.357E-04
  15 F= -.79399926E+03 E0= -.79399926E+03  d E =-.186964E-03
       N       E                     dE             d eps       ncg     rms          rms(c)
DAV:   1    -0.793999285495E+03   -0.26996E-04   -0.12239E-05  4064   0.753E-03    0.122E-03
RMM:   2    -0.793999265807E+03    0.19688E-04   -0.38411E-07  1938   0.131E-03    0.605E-04
RMM:   3    -0.793999268681E+03   -0.28741E-05   -0.23399E-08   839   0.474E-04    0.330E-04
RMM:   4    -0.793999269517E+03   -0.83626E-06   -0.37197E-08   846   0.447E-04
  16 F= -.79399927E+03 E0= -.79399927E+03  d E =-.197350E-03
       N       E                     dE             d eps       ncg     rms          rms(c)
DAV:   1    -0.793999432457E+03   -0.16378E-03   -0.46709E-04  3927   0.477E-02    0.797E-03
RMM:   2    -0.793999400578E+03    0.31879E-04   -0.11932E-05  3724   0.694E-03    0.453E-03
RMM:   3    -0.793999409256E+03   -0.86779E-05   -0.22119E-06  2413   0.283E-03    0.188E-03
RMM:   4    -0.793999412361E+03   -0.31049E-05   -0.42500E-07  2126   0.119E-03    0.663E-04
RMM:   5    -0.793999412076E+03    0.28468E-06   -0.45131E-08  1118   0.514E-04
  17 F= -.79399941E+03 E0= -.79399941E+03  d E =-.142559E-03
       N       E                     dE             d eps       ncg     rms          rms(c)
DAV:   1    -0.793999412465E+03   -0.10449E-06   -0.60671E-08  2472   0.479E-04    0.112E-04
RMM:   2    -0.793999412147E+03    0.31835E-06    0.00000E+00   342   0.211E-04
  18 F= -.79399941E+03 E0= -.79399941E+03  d E =-.142630E-03
