 vasp.6.2.0 18Jan21 (build Feb 25 2021 07:51:20) complex                         
 executed on             LinuxPGI date 2022.05.18  06:43:48
 running on    1 total cores
 distrk:  each k-point on    1 cores,    1 groups
 distr:  one band on NCORE=   1 cores,    1 groups


--------------------------------------------------------------------------------------------------------


 INCAR:
   ALGO = Fast
   PREC = Accurate
   EDIFF = 1E-6
   ENCUT = 700
   ISMEAR = -5
   IBRION = 2
   ISIF = 4
   LREAL = Auto
   LWAVE = False
   LCHARGE = False
   NSW = 300
   SIGMA = 0.05

 POTCAR:    PAW_PBE B 06Sep2000                   
 POTCAR:    PAW_PBE C 08Apr2002                   
 POTCAR:    PAW_PBE B 06Sep2000                   
   VRHFIN =B: s2p1                                                                                  
   LEXCH  = PE                                                                                      
   EATOM  =    71.1703 eV,    5.2309 Ry                                                             
                                                                                                    
   TITEL  = PAW_PBE B 06Sep2000                                                                     
   LULTRA =        F    use ultrasoft PP ?                                                          
   IUNSCR =        1    unscreen: 0-lin 1-nonlin 2-no                                               
   RPACOR =    1.200    partial core radius                                                         
   POMASS =   10.811; ZVAL   =    3.000    mass and valenz                                          
   RCORE  =    1.700    outmost cutoff radius                                                       
   RWIGS  =    1.710; RWIGS  =    0.905    wigner-seitz radius (au A)                               
   ENMAX  =  318.614; ENMIN  =  238.960 eV                                                          
   ICORE  =        2    local potential                                                             
   LCOR   =        T    correct aug charges                                                         
   LPAW   =        T    paw PP                                                                      
   EAUG   =  535.514                                                                                
   DEXC   =    0.000                                                                                
   RMAX   =    1.732    core radius for proj-oper                                                   
   RAUG   =    1.300    factor for augmentation sphere                                              
   RDEP   =    1.757    radius for radial grids                                                     
   RDEPT  =    1.436    core radius for aug-charge                                                  
                                                                                                    
   Atomic configuration                                                                             
    4 entries                                                                                       
     n  l   j            E        occ.                                                              
     1  0  0.50      -180.5896   2.0000                                                             
     2  0  0.50        -9.4431   2.0000                                                             
     2  1  0.50        -3.6068   1.0000                                                             
     3  2  1.50        -4.0817   0.0000                                                             
   Description                                                                                      
     l       E           TYP  RCUT    TYP  RCUT                                                     
     0     -9.4430752     23  1.500                                                                 
     0      0.8675899     23  1.500                                                                 
     1     -3.6067955     23  1.700                                                                 
     1      6.1086146     23  1.700                                                                 
     2     -4.0817478      7  1.700                                                                 
  local pseudopotential read in
  partial core-charges read in
  partial kinetic energy density read in
  atomic valenz-charges read in
  non local Contribution for L=            0  read in
    real space projection operators read in
  non local Contribution for L=            0  read in
    real space projection operators read in
  non local Contribution for L=            1  read in
    real space projection operators read in
  non local Contribution for L=            1  read in
    real space projection operators read in
    PAW grid and wavefunctions read in
 
   number of l-projection  operators is LMAX  =            4
   number of lm-projection operators is LMMAX =            8
 
 POTCAR:    PAW_PBE C 08Apr2002                   
   VRHFIN =C: s2p2                                                                                  
   LEXCH  = PE                                                                                      
   EATOM  =   147.1560 eV,   10.8157 Ry                                                             
                                                                                                    
   TITEL  = PAW_PBE C 08Apr2002                                                                     
   LULTRA =        F    use ultrasoft PP ?                                                          
   IUNSCR =        1    unscreen: 0-lin 1-nonlin 2-no                                               
   RPACOR =    1.200    partial core radius                                                         
   POMASS =   12.011; ZVAL   =    4.000    mass and valenz                                          
   RCORE  =    1.500    outmost cutoff radius                                                       
   RWIGS  =    1.630; RWIGS  =    0.863    wigner-seitz radius (au A)                               
   ENMAX  =  400.000; ENMIN  =  300.000 eV                                                          
   ICORE  =        2    local potential                                                             
   LCOR   =        T    correct aug charges                                                         
   LPAW   =        T    paw PP                                                                      
   EAUG   =  644.873                                                                                
   DEXC   =    0.000                                                                                
   RMAX   =    1.529    core radius for proj-oper                                                   
   RAUG   =    1.300    factor for augmentation sphere                                              
   RDEP   =    1.501    radius for radial grids                                                     
   RDEPT  =    1.300    core radius for aug-charge                                                  
                                                                                                    
   Atomic configuration                                                                             
    4 entries                                                                                       
     n  l   j            E        occ.                                                              
     1  0  0.50      -273.3789   2.0000                                                             
     2  0  0.50       -13.7508   2.0000                                                             
     2  1  0.50        -5.2854   2.0000                                                             
     3  2  1.50        -5.4423   0.0000                                                             
   Description                                                                                      
     l       E           TYP  RCUT    TYP  RCUT                                                     
     0    -13.7508458     23  1.200                                                                 
     0     -8.2022199     23  1.200                                                                 
     1     -5.2854383     23  1.500                                                                 
     1     34.0145650     23  1.500                                                                 
     2     -5.4423304      7  1.500                                                                 
  local pseudopotential read in
  partial core-charges read in
  partial kinetic energy density read in
  atomic valenz-charges read in
  non local Contribution for L=            0  read in
    real space projection operators read in
  non local Contribution for L=            0  read in
    real space projection operators read in
  non local Contribution for L=            1  read in
    real space projection operators read in
  non local Contribution for L=            1  read in
    real space projection operators read in
    PAW grid and wavefunctions read in
 
   number of l-projection  operators is LMAX  =            4
   number of lm-projection operators is LMMAX =            8
 
 Optimization of the real space projectors (new method)

 maximal supplied QI-value         = 22.11
 optimisation between [QCUT,QGAM] = [ 13.49, 26.97] = [ 50.94,203.75] Ry 
 Optimized for a Real-space Cutoff    1.14 Angstroem

   l    n(q)    QCUT    max X(q) W(low)/X(q) W(high)/X(q)  e(spline) 
   0      9    13.487    53.033    0.17E-03    0.11E-03    0.20E-06
   0      9    13.487    34.740    0.17E-03    0.11E-03    0.20E-06
   1      9    13.487    30.949    0.61E-04    0.25E-04    0.11E-06
   1      9    13.487    19.518    0.55E-04    0.23E-04    0.10E-06
 Optimization of the real space projectors (new method)

 maximal supplied QI-value         = 25.13
 optimisation between [QCUT,QGAM] = [ 13.32, 26.89] = [ 49.69,202.52] Ry 
 Optimized for a Real-space Cutoff    1.07 Angstroem

   l    n(q)    QCUT    max X(q) W(low)/X(q) W(high)/X(q)  e(spline) 
   0      9    13.321   115.676    0.24E-03    0.18E-03    0.16E-06
   0      9    13.321    87.132    0.24E-03    0.18E-03    0.16E-06
   1      8    13.321     4.429    0.20E-03    0.27E-03    0.12E-06
   1      8    13.321     2.733    0.16E-03    0.21E-03    0.12E-06
  PAW_PBE B 06Sep2000                   :
 energy of atom  1       EATOM=  -71.1703
 kinetic energy error for atom=    0.0004 (will be added to EATOM!!)
  PAW_PBE C 08Apr2002                   :
 energy of atom  2       EATOM= -147.1560
 kinetic energy error for atom=    0.0032 (will be added to EATOM!!)
 
 
 POSCAR: B96 C16
  positions in direct lattice
  No initial velocities read in
 exchange correlation table for  LEXCH =        8
   RHO(1)=    0.500       N(1)  =     2000
   RHO(2)=  100.500       N(2)  =     4000
 


--------------------------------------------------------------------------------------------------------


 ion  position               nearest neighbor table
   1  0.160  0.401  0.401-  97 1.56  76 1.78  35 1.78  42 1.79  59 1.81  66 1.82
   2  0.160  0.401  0.901-  98 1.56  75 1.78  36 1.78  41 1.79  60 1.81  65 1.82
   3  0.160  0.901  0.401-  99 1.56  74 1.78  33 1.78  44 1.79  57 1.81  68 1.82
   4  0.160  0.901  0.901- 100 1.56  73 1.78  34 1.78  43 1.79  58 1.81  67 1.82
   5  0.660  0.401  0.401- 101 1.56  80 1.78  39 1.78  46 1.79  63 1.81  70 1.82
   6  0.660  0.401  0.901- 102 1.56  79 1.78  40 1.78  45 1.79  64 1.81  69 1.82
   7  0.660  0.901  0.401- 103 1.56  78 1.78  37 1.78  48 1.79  61 1.81  72 1.82
   8  0.660  0.901  0.901- 104 1.56  77 1.78  38 1.78  47 1.79  62 1.81  71 1.82
   9  0.401  0.401  0.160-  97 1.55  27 1.78  87 1.79  45 1.80  51 1.80  69 1.80
  10  0.401  0.401  0.660-  98 1.55  28 1.78  88 1.79  46 1.80  52 1.80  70 1.80
  11  0.401  0.901  0.160-  99 1.55  25 1.78  85 1.79  47 1.80  49 1.80  71 1.80
  12  0.401  0.901  0.660- 100 1.55  26 1.78  86 1.79  48 1.80  50 1.80  72 1.80
  13  0.901  0.401  0.160- 101 1.55  31 1.78  83 1.79  41 1.80  55 1.80  65 1.80
  14  0.901  0.401  0.660- 102 1.55  32 1.78  84 1.79  42 1.80  56 1.80  66 1.80
  15  0.901  0.901  0.160- 103 1.55  29 1.78  81 1.79  43 1.80  53 1.80  67 1.80
  16  0.901  0.901  0.660- 104 1.55  30 1.78  82 1.79  44 1.80  54 1.80  68 1.80
  17  0.401  0.160  0.401-  97 1.55  94 1.78  26 1.79  37 1.80  61 1.80  50 1.81
  18  0.401  0.160  0.901-  98 1.55  93 1.78  25 1.79  38 1.80  62 1.80  49 1.81
  19  0.401  0.660  0.401-  99 1.55  96 1.78  28 1.79  39 1.80  63 1.80  52 1.81
  20  0.401  0.660  0.901- 100 1.55  95 1.78  27 1.79  40 1.80  64 1.80  51 1.81
  21  0.901  0.160  0.401- 101 1.55  90 1.78  30 1.79  33 1.80  57 1.80  54 1.81
  22  0.901  0.160  0.901- 102 1.55  89 1.78  29 1.79  34 1.80  58 1.80  53 1.81
  23  0.901  0.660  0.401- 103 1.55  92 1.78  32 1.79  35 1.80  59 1.80  56 1.81
  24  0.901  0.660  0.901- 104 1.55  91 1.78  31 1.79  36 1.80  60 1.80  55 1.81
  25  0.340  0.099  0.099- 105 1.56  49 1.78  11 1.78  18 1.79  85 1.81  93 1.82
  26  0.340  0.099  0.599- 106 1.56  50 1.78  12 1.78  17 1.79  86 1.81  94 1.82
  27  0.340  0.599  0.099- 107 1.56  51 1.78   9 1.78  20 1.79  87 1.81  95 1.82
  28  0.340  0.599  0.599- 108 1.56  52 1.78  10 1.78  19 1.79  88 1.81  96 1.82
  29  0.840  0.099  0.099- 109 1.56  53 1.78  15 1.78  22 1.79  81 1.81  89 1.82
  30  0.840  0.099  0.599- 110 1.56  54 1.78  16 1.78  21 1.79  82 1.81  90 1.82
  31  0.840  0.599  0.099- 111 1.56  55 1.78  13 1.78  24 1.79  83 1.81  91 1.82
  32  0.840  0.599  0.599- 112 1.56  56 1.78  14 1.78  23 1.79  84 1.81  92 1.82
  33  0.099  0.099  0.340- 105 1.55   3 1.78  57 1.79  21 1.80  74 1.80  90 1.80
  34  0.099  0.099  0.840- 106 1.55   4 1.78  58 1.79  22 1.80  73 1.80  89 1.80
  35  0.099  0.599  0.340- 107 1.55   1 1.78  59 1.79  23 1.80  76 1.80  92 1.80
  36  0.099  0.599  0.840- 108 1.55   2 1.78  60 1.79  24 1.80  75 1.80  91 1.80
  37  0.599  0.099  0.340- 109 1.55   7 1.78  61 1.79  17 1.80  78 1.80  94 1.80
  38  0.599  0.099  0.840- 110 1.55   8 1.78  62 1.79  18 1.80  77 1.80  93 1.80
  39  0.599  0.599  0.340- 111 1.55   5 1.78  63 1.79  19 1.80  80 1.80  96 1.80
  40  0.599  0.599  0.840- 112 1.55   6 1.78  64 1.79  20 1.80  79 1.80  95 1.80
  41  0.099  0.340  0.099- 105 1.55  65 1.78   2 1.79  13 1.80  83 1.80  75 1.81
  42  0.099  0.340  0.599- 106 1.55  66 1.78   1 1.79  14 1.80  84 1.80  76 1.81
  43  0.099  0.840  0.099- 107 1.55  67 1.78   4 1.79  15 1.80  81 1.80  73 1.81
  44  0.099  0.840  0.599- 108 1.55  68 1.78   3 1.79  16 1.80  82 1.80  74 1.81
  45  0.599  0.340  0.099- 109 1.55  69 1.78   6 1.79   9 1.80  87 1.80  79 1.81
  46  0.599  0.340  0.599- 110 1.55  70 1.78   5 1.79  10 1.80  88 1.80  80 1.81
  47  0.599  0.840  0.099- 111 1.55  71 1.78   8 1.79  11 1.80  85 1.80  77 1.81
  48  0.599  0.840  0.599- 112 1.55  72 1.78   7 1.79  12 1.80  86 1.80  78 1.81
  49  0.332  0.000  0.000-  73 1.72  25 1.78  11 1.80  18 1.81  71 1.87  62 1.88
  50  0.332  0.000  0.500-  74 1.72  26 1.78  12 1.80  17 1.81  72 1.87  61 1.88
  51  0.332  0.500  0.000-  75 1.72  27 1.78   9 1.80  20 1.81  69 1.87  64 1.88
  52  0.332  0.500  0.500-  76 1.72  28 1.78  10 1.80  19 1.81  70 1.87  63 1.88
  53  0.832  0.000  0.000-  77 1.72  29 1.78  15 1.80  22 1.81  67 1.87  58 1.88
  54  0.832  0.000  0.500-  78 1.72  30 1.78  16 1.80  21 1.81  68 1.87  57 1.88
  55  0.832  0.500  0.000-  79 1.72  31 1.78  13 1.80  24 1.81  65 1.87  60 1.88
  56  0.832  0.500  0.500-  80 1.72  32 1.78  14 1.80  23 1.81  66 1.87  59 1.88
  57  0.000  0.000  0.332-  81 1.71  33 1.79  21 1.80   3 1.81  68 1.87  54 1.88
  58  0.000  0.000  0.832-  82 1.71  34 1.79  22 1.80   4 1.81  67 1.87  53 1.88
  59  0.000  0.500  0.332-  83 1.71  35 1.79  23 1.80   1 1.81  66 1.87  56 1.88
  60  0.000  0.500  0.832-  84 1.71  36 1.79  24 1.80   2 1.81  65 1.87  55 1.88
  61  0.500  0.000  0.332-  85 1.71  37 1.79  17 1.80   7 1.81  72 1.87  50 1.88
  62  0.500  0.000  0.832-  86 1.71  38 1.79  18 1.80   8 1.81  71 1.87  49 1.88
  63  0.500  0.500  0.332-  87 1.71  39 1.79  19 1.80   5 1.81  70 1.87  52 1.88
  64  0.500  0.500  0.832-  88 1.71  40 1.79  20 1.80   6 1.81  69 1.87  51 1.88
  65  0.000  0.332  0.000-  89 1.71  41 1.78  13 1.80   2 1.82  60 1.87  55 1.87
  66  0.000  0.332  0.500-  90 1.71  42 1.78  14 1.80   1 1.82  59 1.87  56 1.87
  67  0.000  0.832  0.000-  91 1.71  43 1.78  15 1.80   4 1.82  58 1.87  53 1.87
  68  0.000  0.832  0.500-  92 1.71  44 1.78  16 1.80   3 1.82  57 1.87  54 1.87
  69  0.500  0.332  0.000-  93 1.71  45 1.78   9 1.80   6 1.82  64 1.87  51 1.87
  70  0.500  0.332  0.500-  94 1.71  46 1.78  10 1.80   5 1.82  63 1.87  52 1.87
  71  0.500  0.832  0.000-  95 1.71  47 1.78  11 1.80   8 1.82  62 1.87  49 1.87
  72  0.500  0.832  0.500-  96 1.71  48 1.78  12 1.80   7 1.82  61 1.87  50 1.87
  73  0.168  1.000  1.000-  49 1.72   4 1.78  34 1.80  43 1.81  89 1.87  81 1.88
  74  0.168  1.000  0.500-  50 1.72   3 1.78  33 1.80  44 1.81  90 1.87  82 1.88
  75  0.168  0.500  1.000-  51 1.72   2 1.78  36 1.80  41 1.81  91 1.87  83 1.88
  76  0.168  0.500  0.500-  52 1.72   1 1.78  35 1.80  42 1.81  92 1.87  84 1.88
  77  0.668  1.000  1.000-  53 1.72   8 1.78  38 1.80  47 1.81  93 1.87  85 1.88
  78  0.668  1.000  0.500-  54 1.72   7 1.78  37 1.80  48 1.81  94 1.87  86 1.88
  79  0.668  0.500  1.000-  55 1.72   6 1.78  40 1.80  45 1.81  95 1.87  87 1.88
  80  0.668  0.500  0.500-  56 1.72   5 1.78  39 1.80  46 1.81  96 1.87  88 1.88
  81  1.000  1.000  0.168-  57 1.71  15 1.79  43 1.80  29 1.81  89 1.87  73 1.88
  82  1.000  1.000  0.668-  58 1.71  16 1.79  44 1.80  30 1.81  90 1.87  74 1.88
  83  1.000  0.500  0.168-  59 1.71  13 1.79  41 1.80  31 1.81  91 1.87  75 1.88
  84  1.000  0.500  0.668-  60 1.71  14 1.79  42 1.80  32 1.81  92 1.87  76 1.88
  85  0.500  1.000  0.168-  61 1.71  11 1.79  47 1.80  25 1.81  93 1.87  77 1.88
  86  0.500  1.000  0.668-  62 1.71  12 1.79  48 1.80  26 1.81  94 1.87  78 1.88
  87  0.500  0.500  0.168-  63 1.71   9 1.79  45 1.80  27 1.81  95 1.87  79 1.88
  88  0.500  0.500  0.668-  64 1.71  10 1.79  46 1.80  28 1.81  96 1.87  80 1.88
  89  1.000  0.168  1.000-  65 1.71  22 1.78  34 1.80  29 1.82  81 1.87  73 1.87
  90  1.000  0.168  0.500-  66 1.71  21 1.78  33 1.80  30 1.82  82 1.87  74 1.87
  91  1.000  0.668  1.000-  67 1.71  24 1.78  36 1.80  31 1.82  83 1.87  75 1.87
  92  1.000  0.668  0.500-  68 1.71  23 1.78  35 1.80  32 1.82  84 1.87  76 1.87
  93  0.500  0.168  1.000-  69 1.71  18 1.78  38 1.80  25 1.82  85 1.87  77 1.87
  94  0.500  0.168  0.500-  70 1.71  17 1.78  37 1.80  26 1.82  86 1.87  78 1.87
  95  0.500  0.668  1.000-  71 1.71  20 1.78  40 1.80  27 1.82  87 1.87  79 1.87
  96  0.500  0.668  0.500-  72 1.71  19 1.78  39 1.80  28 1.82  88 1.87  80 1.87
  97  0.315  0.315  0.315-  17 1.55   9 1.55   1 1.56
  98  0.315  0.315  0.815-  18 1.55  10 1.55   2 1.56
  99  0.315  0.815  0.315-  19 1.55  11 1.55   3 1.56
 100  0.315  0.815  0.815-  20 1.55  12 1.55   4 1.56
 101  0.815  0.315  0.315-  21 1.55  13 1.55   5 1.56
 102  0.815  0.315  0.815-  22 1.55  14 1.55   6 1.56
 103  0.815  0.815  0.315-  23 1.55  15 1.55   7 1.56
 104  0.815  0.815  0.815-  24 1.55  16 1.55   8 1.56
 105  0.185  0.185  0.185-  41 1.55  33 1.55  25 1.56
 106  0.185  0.185  0.685-  42 1.55  34 1.55  26 1.56
 107  0.185  0.685  0.185-  43 1.55  35 1.55  27 1.56
 108  0.185  0.685  0.685-  44 1.55  36 1.55  28 1.56
 109  0.685  0.185  0.185-  45 1.55  37 1.55  29 1.56
 110  0.685  0.185  0.685-  46 1.55  38 1.55  30 1.56
 111  0.685  0.685  0.185-  47 1.55  39 1.55  31 1.56
 112  0.685  0.685  0.685-  48 1.55  40 1.55  32 1.56
 
  LATTYP: Found a triclinic cell.
 ALAT       =    10.4480549991
 B/A-ratio  =     1.0681127018
 C/A-ratio  =     0.9918300895
 COS(alpha) =     0.0001119293
 COS(beta)  =     0.4209261576
 COS(gamma) =     0.5410042343
  
  Lattice vectors:
  
 A1 = (  -9.5187470000,  -0.0725710000,  -4.3069760000)
 A2 = (  -6.6949470000,   8.9284150000,   0.0000010000)
 A3 = (  -0.0987160000,  -0.0725710000, -10.3619710000)


Analysis of symmetry for initial positions (statically):
=====================================================================
 Subroutine PRICEL returns following result:
 
  LATTYP: Found a triclinic cell.
 ALAT       =     5.2240274996
 B/A-ratio  =     1.0681127018
 C/A-ratio  =     0.9918300895
 COS(alpha) =     0.0001119293
 COS(beta)  =     0.4209261576
 COS(gamma) =     0.5410042343
  
  Lattice vectors:
  
 A1 = (  -4.7593735000,  -0.0362855000,  -2.1534880000)
 A2 = (  -3.3474735000,   4.4642075000,   0.0000005000)
 A3 = (  -0.0493580000,  -0.0362855000,  -5.1809855000)
 
   8 primitive cells build up your supercell.
 

 Routine SETGRP: Setting up the symmetry group for a 
 triclinic supercell.


 Subroutine GETGRP returns: Found  2 space group operations
 (whereof  2 operations were pure point group operations)
 out of a pool of  2 trial point group operations.


The static configuration has the point symmetry S_2 .


Analysis of symmetry for dynamics (positions and initial velocities):
=====================================================================
 Subroutine PRICEL returns following result:
 
  LATTYP: Found a triclinic cell.
 ALAT       =     5.2240274996
 B/A-ratio  =     1.0681127018
 C/A-ratio  =     0.9918300895
 COS(alpha) =     0.0001119293
 COS(beta)  =     0.4209261576
 COS(gamma) =     0.5410042343
  
  Lattice vectors:
  
 A1 = (  -4.7593735000,  -0.0362855000,  -2.1534880000)
 A2 = (  -3.3474735000,   4.4642075000,   0.0000005000)
 A3 = (  -0.0493580000,  -0.0362855000,  -5.1809855000)
 
   8 primitive cells build up your supercell.
 

 Routine SETGRP: Setting up the symmetry group for a 
 triclinic supercell.


 Subroutine GETGRP returns: Found  2 space group operations
 (whereof  2 operations were pure point group operations)
 out of a pool of  2 trial point group operations.


The dynamic configuration has the point symmetry S_2 .


 Subroutine INISYM returns: Found  2 space group operations
 (whereof  2 operations are pure point group operations),
 and found     8 'primitive' translations


----------------------------------------------------------------------------------------

                                     Primitive cell                                     

  volume of cell :     109.9727

  direct lattice vectors                    reciprocal lattice vectors
    -4.759373500 -0.036285500 -2.153488000    -0.210315690 -0.157704632  0.003108126
    -3.347473500  4.464207500  0.000000500    -0.000998923  0.223254885 -0.001554069
    -0.049358000 -0.036285500 -5.180985500     0.087418178  0.065550298 -0.194305371

  length of vectors
     5.224027500  5.579850127  5.181347663     0.262893706  0.223262529  0.222920068

  position of ions in fractional coordinates (direct lattice)
     0.878180000  0.801030000  0.198970000
     0.397940000  0.801030000  0.679210000
     0.878180000  0.320790000  0.198970000
     0.121820000  0.198970000  0.801030000
     0.602060000  0.198970000  0.320790000
     0.121820000  0.679210000  0.801030000
     0.335184000  0.000230000  0.999770000
     0.999540000  0.000230000  0.335414000
     0.335184000  0.664586000  0.999770000
     0.664816000  0.999770000  0.000230000
     0.000460000  0.999770000  0.664586000
     0.664816000  0.335414000  0.000230000
     0.738412000  0.630794000  0.369206000
     0.261588000  0.369206000  0.630794000

  ion indices of the primitive-cell ions
   primitive index   ion index
                 1           1
                 2           9
                 3          17
                 4          28
                 5          35
                 6          42
                 7          52
                 8          59
                 9          66
                10          76
                11          83
                12          90
                13          97
                14         105

----------------------------------------------------------------------------------------

 
 -----------------------------------------------------------------------------
|                                                                             |
|           W    W    AA    RRRRR   N    N  II  N    N   GGGG   !!!           |
|           W    W   A  A   R    R  NN   N  II  NN   N  G    G  !!!           |
|           W    W  A    A  R    R  N N  N  II  N N  N  G       !!!           |
|           W WW W  AAAAAA  RRRRR   N  N N  II  N  N N  G  GGG   !            |
|           WW  WW  A    A  R   R   N   NN  II  N   NN  G    G                |
|           W    W  A    A  R    R  N    N  II  N    N   GGGG   !!!           |
|                                                                             |
|     The requested file  could not be found or opened for reading            |
|     k-point information. Automatic k-point generation is used as a          |
|     fallback, which may lead to unwanted results.                           |
|                                                                             |
 -----------------------------------------------------------------------------

 

Automatic generation of k-mesh.
 Grid dimensions derived from KSPACING:
 generate k-points for:    2    2    2

 Generating k-lattice:

  Cartesian coordinates                     Fractional coordinates (reciprocal lattice)
     0.052828653 -0.016387563 -0.000388514     0.500000000 -0.000000000 -0.000000000
    -0.000249731  0.055813721 -0.000388517    -0.000000000  0.500000000  0.000000000
    -0.021854545 -0.016387574  0.048576343     0.000000000  0.000000000  0.500000000

  Length of vectors
     0.055313378  0.055815632  0.055730017

  Shift w.r.t. Gamma in fractional coordinates (k-lattice)
     0.000000000  0.000000000  0.000000000

 TETIRR: Found     24 inequivalent tetrahedra from       48
 
 Subroutine IBZKPT returns following result:
 ===========================================
 
 Found      8 irreducible k-points:
 
 Following reciprocal coordinates:
            Coordinates               Weight
  0.000000  0.000000  0.000000      1.000000
  0.500000  0.000000  0.000000      1.000000
  0.000000  0.500000  0.000000      1.000000
  0.500000  0.500000  0.000000      1.000000
  0.000000  0.000000  0.500000      1.000000
  0.500000  0.000000  0.500000      1.000000
  0.000000  0.500000  0.500000      1.000000
  0.500000  0.500000  0.500000      1.000000
 
 Following cartesian coordinates:
            Coordinates               Weight
  0.000000  0.000000  0.000000      1.000000
  0.052829 -0.016388 -0.000389      1.000000
 -0.000250  0.055814 -0.000389      1.000000
  0.052579  0.039426 -0.000777      1.000000
 -0.021855 -0.016388  0.048576      1.000000
  0.030974 -0.032775  0.048188      1.000000
 -0.022104  0.039426  0.048188      1.000000
  0.030724  0.023039  0.047799      1.000000
 


--------------------------------------------------------------------------------------------------------




 Dimension of arrays:
   k-points           NKPTS =      8   k-points in BZ     NKDIM =      8   number of bands    NBANDS=    233
   number of dos      NEDOS =    301   number of ions     NIONS =    112
   non local maximal  LDIM  =      4   non local SUM 2l+1 LMDIM =      8
   total plane-waves  NPLWV = 729000
   max r-space proj   IRMAX =   5197   max aug-charges    IRDMAX=  13120
   dimension x,y,z NGX =    90 NGY =   90 NGZ =   90
   dimension x,y,z NGXF=   180 NGYF=  180 NGZF=  180
   support grid    NGXF=   180 NGYF=  180 NGZF=  180
   ions per type =              96  16
   NGX,Y,Z   is equivalent  to a cutoff of  14.32, 14.43, 14.44 a.u.
   NGXF,Y,Z  is equivalent  to a cutoff of  28.64, 28.86, 28.88 a.u.

 SYSTEM =  unknown system                          
 POSCAR =  B96 C16                                 

 Startparameter for this run:
   NWRITE =      2    write-flag & timer
   PREC   = accura    normal or accurate (medium, high low for compatibility)
   ISTART =      0    job   : 0-new  1-cont  2-samecut
   ICHARG =      2    charge: 1-file 2-atom 10-const
   ISPIN  =      1    spin polarized calculation?
   LNONCOLLINEAR =      F non collinear calculations
   LSORBIT =      F    spin-orbit coupling
   INIWAV =      1    electr: 0-lowe 1-rand  2-diag
   LASPH  =      F    aspherical Exc in radial PAW
   METAGGA=      F    non-selfconsistent MetaGGA calc.

 Electronic Relaxation 1
   ENCUT  =  700.0 eV  51.45 Ry    7.17 a.u.  22.54 22.37 22.36*2*pi/ulx,y,z
   ENINI  =  700.0     initial cutoff
   ENAUG  =  644.9 eV  augmentation charge cutoff
   NELM   =     60;   NELMIN=  2; NELMDL= -5     # of ELM steps 
   EDIFF  = 0.1E-05   stopping-criterion for ELM
   LREAL  =      T    real-space projection
   NLSPLINE    = F    spline interpolate recip. space projectors
   LCOMPAT=      F    compatible to vasp.4.4
   GGA_COMPAT  = T    GGA compatible to vasp.4.4-vasp.4.6
   LMAXPAW     = -100 max onsite density
   LMAXMIX     =    2 max onsite mixed and CHGCAR
   VOSKOWN=      0    Vosko Wilk Nusair interpolation
   ROPT   =   -0.00025  -0.00025
 Ionic relaxation
   EDIFFG = 0.1E-04   stopping-criterion for IOM
   NSW    =    300    number of steps for IOM
   NBLOCK =      1;   KBLOCK =    300    inner block; outer block 
   IBRION =      2    ionic relax: 0-MD 1-quasi-New 2-CG
   NFREE  =      1    steps in history (QN), initial steepest desc. (CG)
   ISIF   =      4    stress and relaxation
   IWAVPR =     11    prediction:  0-non 1-charg 2-wave 3-comb
   ISYM   =      2    0-nonsym 1-usesym 2-fastsym
   LCORR  =      T    Harris-Foulkes like correction to forces

   POTIM  = 0.5000    time-step for ionic-motion
   TEIN   =    0.0    initial temperature
   TEBEG  =    0.0;   TEEND  =   0.0 temperature during run
   SMASS  =  -3.00    Nose mass-parameter (am)
   estimated Nose-frequenzy (Omega)   =  0.10E-29 period in steps = 0.13E+47 mass=  -0.249E-26a.u.
   SCALEE = 1.0000    scale energy and forces
   NPACO  =    256;   APACO  = 16.0  distance and # of slots for P.C.
   PSTRESS=    0.0 pullay stress

  Mass of Ions in am
   POMASS =  10.81 12.01
  Ionic Valenz
   ZVAL   =   3.00  4.00
  Atomic Wigner-Seitz radii
   RWIGS  =  -1.00 -1.00
  virtual crystal weights 
   VCA    =   1.00  1.00
   NELECT =     352.0000    total number of electrons
   NUPDOWN=      -1.0000    fix difference up-down

 DOS related values:
   EMIN   =  10.00;   EMAX   =-10.00  energy-range for DOS
   EFERMI =   0.00
   ISMEAR =    -5;   SIGMA  =   0.05  broadening in eV -4-tet -1-fermi 0-gaus

 Electronic relaxation 2 (details)
   IALGO  =     68    algorithm
   LDIAG  =      T    sub-space diagonalisation (order eigenvalues)
   LSUBROT=      F    optimize rotation matrix (better conditioning)
   TURBO    =      0    0=normal 1=particle mesh
   IRESTART =      0    0=no restart 2=restart with 2 vectors
   NREBOOT  =      0    no. of reboots
   NMIN     =      0    reboot dimension
   EREF     =   0.00    reference energy to select bands
   IMIX   =      4    mixing-type and parameters
     AMIX     =   0.40;   BMIX     =  1.00
     AMIX_MAG =   1.60;   BMIX_MAG =  1.00
     AMIN     =   0.10
     WC   =   100.;   INIMIX=   1;  MIXPRE=   1;  MAXMIX= -45

 Intra band minimization:
   WEIMIN = 0.0010     energy-eigenvalue tresh-hold
   EBREAK =  0.11E-08  absolut break condition
   DEPER  =   0.30     relativ break condition  

   TIME   =   0.40     timestep for ELM

  volume/ion in A,a.u.               =       7.86        53.01
  Fermi-wavevector in a.u.,A,eV,Ry     =   1.206324  2.279622 19.799443  1.455218
  Thomas-Fermi vector in A             =   2.341995
 
 Write flags
   LWAVE        =      F    write WAVECAR
   LDOWNSAMPLE  =      F    k-point downsampling of WAVECAR
   LCHARG       =      T    write CHGCAR
   LVTOT        =      F    write LOCPOT, total local potential
   LVHAR        =      F    write LOCPOT, Hartree potential only
   LELF         =      F    write electronic localiz. function (ELF)
   LORBIT       =      0    0 simple, 1 ext, 2 COOP (PROOUT), +10 PAW based schemes


 Dipole corrections
   LMONO  =      F    monopole corrections only (constant potential shift)
   LDIPOL =      F    correct potential (dipole corrections)
   IDIPOL =      0    1-x, 2-y, 3-z, 4-all directions 
   EPSILON=  1.0000000 bulk dielectric constant

 Exchange correlation treatment:
   GGA     =    --    GGA type
   LEXCH   =     8    internal setting for exchange type
   VOSKOWN=      0    Vosko Wilk Nusair interpolation
   LHFCALC =     F    Hartree Fock is set to
   LHFONE  =     F    Hartree Fock one center treatment
   AEXX    =    0.0000 exact exchange contribution

 Linear response parameters
   LEPSILON=     F    determine dielectric tensor
   LRPA    =     F    only Hartree local field effects (RPA)
   LNABLA  =     F    use nabla operator in PAW spheres
   LVEL    =     F    velocity operator in full k-point grid
   LINTERFAST=   F  fast interpolation
   KINTER  =     0    interpolate to denser k-point grid
   CSHIFT  =0.1000    complex shift for real part using Kramers Kronig
   OMEGAMAX=  -1.0    maximum frequency
   DEG_THRESHOLD= 0.2000000E-02 threshold for treating states as degnerate
   RTIME   =   -0.100 relaxation time in fs
  (WPLASMAI=    0.000 imaginary part of plasma frequency in eV, 0.658/RTIME)
   DFIELD  = 0.0000000 0.0000000 0.0000000 field for delta impulse in time
 
 Orbital magnetization related:
   ORBITALMAG=     F  switch on orbital magnetization
   LCHIMAG   =     F  perturbation theory with respect to B field
   DQ        =  0.001000  dq finite difference perturbation B field
   LLRAUG    =     F  two centre corrections for induced B field



--------------------------------------------------------------------------------------------------------


 conjugate gradient relaxation of ions
 charge density and potential will be updated during run
 non-spin polarized calculation
 RMM-DIIS sequential band-by-band and
  variant of blocked Davidson during initial phase
 perform sub-space diagonalisation
    before iterative eigenvector-optimisation
 modified Broyden-mixing scheme, WC =      100.0
 initial mixing is a Kerker type mixing with AMIX =  0.4000 and BMIX =      1.0000
 Hartree-type preconditioning will be used
 using additional bands            57
 real space projection scheme for non local part
 use partial core corrections
 calculate Harris-corrections to forces 
   (improved forces if not selfconsistent)
 use gradient corrections 
 use of overlap-Matrix (Vanderbilt PP)
 Fermi weights with tetrahedron method with Bloechl corrections


--------------------------------------------------------------------------------------------------------


  energy-cutoff  :      700.00
  volume of cell :      879.78
      direct lattice vectors                 reciprocal lattice vectors
     9.518747000  0.072571000  4.306976000     0.105657306 -0.032775127 -0.000777028
     2.823800000  9.000986000  4.306977000    -0.000499461  0.111627443 -0.000777035
     0.098716000  0.072571000 10.361971000    -0.043709089 -0.032775149  0.097152686

  length of vectors
    10.448054999 10.370228845 10.362695325     0.110626756  0.111631264  0.111460034


 
 k-points in units of 2pi/SCALE and weight: read from INCAR                         
   0.00000000  0.00000000  0.00000000       0.125
   0.05282865 -0.01638756 -0.00038851       0.125
  -0.00024973  0.05581372 -0.00038852       0.125
   0.05257892  0.03942616 -0.00077703       0.125
  -0.02185454 -0.01638757  0.04857634       0.125
   0.03097411 -0.03277514  0.04818783       0.125
  -0.02210428  0.03942615  0.04818783       0.125
   0.03072438  0.02303858  0.04779931       0.125
 
 k-points in reciprocal lattice and weights: read from INCAR                         
   0.00000000  0.00000000  0.00000000       0.125
   0.50000000  0.00000000  0.00000000       0.125
   0.00000000  0.50000000  0.00000000       0.125
   0.50000000  0.50000000  0.00000000       0.125
   0.00000000  0.00000000  0.50000000       0.125
   0.50000000  0.00000000  0.50000000       0.125
   0.00000000  0.50000000  0.50000000       0.125
   0.50000000  0.50000000  0.50000000       0.125
 
 position of ions in fractional coordinates (direct lattice) 
   0.16039500  0.40051500  0.40051500
   0.16039500  0.40051500  0.90051500
   0.16039500  0.90051500  0.40051500
   0.16039500  0.90051500  0.90051500
   0.66039500  0.40051500  0.40051500
   0.66039500  0.40051500  0.90051500
   0.66039500  0.90051500  0.40051500
   0.66039500  0.90051500  0.90051500
   0.40051500  0.40051500  0.16039500
   0.40051500  0.40051500  0.66039500
   0.40051500  0.90051500  0.16039500
   0.40051500  0.90051500  0.66039500
   0.90051500  0.40051500  0.16039500
   0.90051500  0.40051500  0.66039500
   0.90051500  0.90051500  0.16039500
   0.90051500  0.90051500  0.66039500
   0.40051500  0.16039500  0.40051500
   0.40051500  0.16039500  0.90051500
   0.40051500  0.66039500  0.40051500
   0.40051500  0.66039500  0.90051500
   0.90051500  0.16039500  0.40051500
   0.90051500  0.16039500  0.90051500
   0.90051500  0.66039500  0.40051500
   0.90051500  0.66039500  0.90051500
   0.33960500  0.09948500  0.09948500
   0.33960500  0.09948500  0.59948500
   0.33960500  0.59948500  0.09948500
   0.33960500  0.59948500  0.59948500
   0.83960500  0.09948500  0.09948500
   0.83960500  0.09948500  0.59948500
   0.83960500  0.59948500  0.09948500
   0.83960500  0.59948500  0.59948500
   0.09948500  0.09948500  0.33960500
   0.09948500  0.09948500  0.83960500
   0.09948500  0.59948500  0.33960500
   0.09948500  0.59948500  0.83960500
   0.59948500  0.09948500  0.33960500
   0.59948500  0.09948500  0.83960500
   0.59948500  0.59948500  0.33960500
   0.59948500  0.59948500  0.83960500
   0.09948500  0.33960500  0.09948500
   0.09948500  0.33960500  0.59948500
   0.09948500  0.83960500  0.09948500
   0.09948500  0.83960500  0.59948500
   0.59948500  0.33960500  0.09948500
   0.59948500  0.33960500  0.59948500
   0.59948500  0.83960500  0.09948500
   0.59948500  0.83960500  0.59948500
   0.33229300  0.00011500  0.00011500
   0.33229300  0.00011500  0.50011500
   0.33229300  0.50011500  0.00011500
   0.33229300  0.50011500  0.50011500
   0.83229300  0.00011500  0.00011500
   0.83229300  0.00011500  0.50011500
   0.83229300  0.50011500  0.00011500
   0.83229300  0.50011500  0.50011500
   0.00011500  0.00011500  0.33229300
   0.00011500  0.00011500  0.83229300
   0.00011500  0.50011500  0.33229300
   0.00011500  0.50011500  0.83229300
   0.50011500  0.00011500  0.33229300
   0.50011500  0.00011500  0.83229300
   0.50011500  0.50011500  0.33229300
   0.50011500  0.50011500  0.83229300
   0.00011500  0.33229300  0.00011500
   0.00011500  0.33229300  0.50011500
   0.00011500  0.83229300  0.00011500
   0.00011500  0.83229300  0.50011500
   0.50011500  0.33229300  0.00011500
   0.50011500  0.33229300  0.50011500
   0.50011500  0.83229300  0.00011500
   0.50011500  0.83229300  0.50011500
   0.16770700  0.99988500  0.99988500
   0.16770700  0.99988500  0.49988500
   0.16770700  0.49988500  0.99988500
   0.16770700  0.49988500  0.49988500
   0.66770700  0.99988500  0.99988500
   0.66770700  0.99988500  0.49988500
   0.66770700  0.49988500  0.99988500
   0.66770700  0.49988500  0.49988500
   0.99988500  0.99988500  0.16770700
   0.99988500  0.99988500  0.66770700
   0.99988500  0.49988500  0.16770700
   0.99988500  0.49988500  0.66770700
   0.49988500  0.99988500  0.16770700
   0.49988500  0.99988500  0.66770700
   0.49988500  0.49988500  0.16770700
   0.49988500  0.49988500  0.66770700
   0.99988500  0.16770700  0.99988500
   0.99988500  0.16770700  0.49988500
   0.99988500  0.66770700  0.99988500
   0.99988500  0.66770700  0.49988500
   0.49988500  0.16770700  0.99988500
   0.49988500  0.16770700  0.49988500
   0.49988500  0.66770700  0.99988500
   0.49988500  0.66770700  0.49988500
   0.31539700  0.31539700  0.31539700
   0.31539700  0.31539700  0.81539700
   0.31539700  0.81539700  0.31539700
   0.31539700  0.81539700  0.81539700
   0.81539700  0.31539700  0.31539700
   0.81539700  0.31539700  0.81539700
   0.81539700  0.81539700  0.31539700
   0.81539700  0.81539700  0.81539700
   0.18460300  0.18460300  0.18460300
   0.18460300  0.18460300  0.68460300
   0.18460300  0.68460300  0.18460300
   0.18460300  0.68460300  0.68460300
   0.68460300  0.18460300  0.18460300
   0.68460300  0.18460300  0.68460300
   0.68460300  0.68460300  0.18460300
   0.68460300  0.68460300  0.68460300
 
 position of ions in cartesian coordinates  (Angst):
   2.69727092  3.64573571  6.56595112
   2.74662892  3.68202121 11.74693662
   4.10917092  8.14622871  8.71943962
   4.15852892  8.18251421 13.90042512
   7.45664442  3.68202121  8.71943912
   7.50600242  3.71830671 13.90042462
   8.86854442  8.18251421 10.87292762
   8.91790242  8.21879971 16.05391312
   4.95920876  3.64573571  5.11202572
   5.00856676  3.68202121 10.29301122
   6.37110876  8.14622871  7.26551422
   6.42046676  8.18251421 12.44649972
   9.71858226  3.68202121  7.26551372
   9.76794026  3.71830671 12.44649922
  11.13048226  8.18251421  9.41900222
  11.17984026  8.21879971 14.59998772
   4.30486159  1.50184470  6.56595088
   4.35421959  1.53813020 11.74693638
   5.71676159  6.00233770  8.71943938
   5.76611959  6.03862320 13.90042488
   9.06423509  1.53813020  8.71943888
   9.11359309  1.57441570 13.90042438
  10.47613509  6.03862320 10.87292738
  10.52549309  6.07490870 16.05391288
   3.52336058  0.92732829  2.92201088
   3.57271858  0.96361379  8.10299638
   4.93526058  5.42782129  5.07549938
   4.98461858  5.46410679 10.25648488
   8.28273408  0.96361379  5.07549888
   8.33209208  0.99989929 10.25648438
   9.69463408  5.46410679  7.22898738
   9.74399208  5.50039229 12.40997288
   1.26142274  0.92732829  4.37593628
   1.31078074  0.96361379  9.55692178
   2.67332274  5.42782129  6.52942478
   2.72268074  5.46410679 11.71041028
   6.02079624  0.96361379  6.52942428
   6.07015424  0.99989929 11.71040978
   7.43269624  5.46410679  8.68291278
   7.48205424  5.50039229 13.86389828
   1.91576991  3.07121930  2.92201112
   1.96512791  3.10750480  8.10299662
   3.32766991  7.57171230  5.07549962
   3.37702791  7.60799780 10.25648512
   6.67514341  3.10750480  5.07549912
   6.72450141  3.14379030 10.25648462
   8.08704341  7.60799780  7.22898762
   8.13640141  7.64428330 12.40997312
   3.16334909  0.02515829  1.43286490
   3.21270709  0.06144379  6.61385040
   4.57524909  4.52565129  3.58635340
   4.62460709  4.56193679  8.76733890
   7.92272259  0.06144379  3.58635290
   7.97208059  0.09772929  8.76733840
   9.33462259  4.56193679  5.73984140
   9.38398059  4.59822229 10.92082690
   0.03422203  0.02515829  3.44420103
   0.08358003  0.06144379  8.62518653
   1.44612203  4.52565129  5.59768953
   1.49548003  4.56193679 10.77867503
   4.79359553  0.06144379  5.59768903
   4.84295353  0.09772929 10.77867453
   6.20549553  4.56193679  7.75117753
   6.25485353  4.59822229 12.93216303
   0.93943498  2.99098133  1.43286524
   0.98879298  3.02726683  6.61385074
   2.35133498  7.49147433  3.58635374
   2.40069298  7.52775983  8.76733924
   5.69880848  3.02726683  3.58635324
   5.74816648  3.06355233  8.76733874
   7.11070848  7.52775983  5.73984174
   7.16006648  7.56404533 10.92082724
   4.51854041  9.08468421 15.38957110
   4.46918241  9.04839871 10.20858560
   3.10664041  4.58419121 13.23608260
   3.05728241  4.54790571  8.05509710
   9.27791391  9.12096971 17.54305910
   9.22855591  9.08468421 12.36207360
   7.86601391  4.62047671 15.38957060
   7.81665591  4.58419121 10.20858510
  12.35768297  9.08468421 10.35073747
  12.40704097  9.12096971 15.53172297
  10.94578297  4.58419121  8.19724897
  10.99514097  4.62047671 13.37823447
   7.59830947  9.04839871  8.19724947
   7.64766747  9.08468421 13.37823497
   6.18640947  4.54790571  6.04376097
   6.23576747  4.58419121 11.22474647
  10.08992802  1.65465367 15.38957026
  10.04057002  1.61836817 10.20858476
  11.50182802  6.15514667 17.54305876
  11.45247002  6.11886117 12.36207326
   5.33055452  1.61836817 13.23608226
   5.28119652  1.58208267  8.05509676
   6.74245452  6.11886117 15.38957076
   6.69309652  6.08257567 10.20858526
   3.92393703  2.88466133  5.98494950
   3.97329503  2.92094683 11.16593500
   5.33583703  7.38515433  8.13843800
   5.38519503  7.42143983 13.31942350
   8.68331053  2.92094683  8.13843750
   8.73266853  2.95723233 13.31942300
  10.09521053  7.42143983 10.29192600
  10.14456853  7.45772533 15.47291150
   2.29669447  1.68840267  3.50301250
   2.34605247  1.72468817  8.68399800
   3.70859447  6.18889567  5.65650100
   3.75795247  6.22518117 10.83748650
   7.05606797  1.72468817  5.65650050
   7.10542597  1.76097367 10.83748600
   8.46796797  6.22518117  7.80998900
   8.51732597  6.26146667 12.99097450
 


--------------------------------------------------------------------------------------------------------


 k-point   1 :   0.0000 0.0000 0.0000  plane waves:   36969
 k-point   2 :   0.5000 0.0000 0.0000  plane waves:   36970
 k-point   3 :   0.0000 0.5000 0.0000  plane waves:   37020
 k-point   4 :   0.5000 0.5000 0.0000  plane waves:   36996
 k-point   5 :   0.0000 0.0000 0.5000  plane waves:   37046
 k-point   6 :   0.5000 0.0000 0.5000  plane waves:   37010
 k-point   7 :   0.0000 0.5000 0.5000  plane waves:   36990
 k-point   8 :   0.5000 0.5000 0.5000  plane waves:   36944

 maximum and minimum number of plane-waves per node :     37046    36944

 maximum number of plane-waves:     37046
 maximum index in each direction: 
   IXMAX=   22   IYMAX=   22   IZMAX=   22
   IXMIN=  -23   IYMIN=  -22   IZMIN=  -22


 serial   3D FFT for wavefunctions
 parallel 3D FFT for charge:
    minimum data exchange during FFTs selected (reduces bandwidth)


 total amount of memory used by VASP MPI-rank0  1769317. kBytes
=======================================================================

   base      :      30000. kBytes
   nonlr-proj:      48302. kBytes
   fftplans  :     200616. kBytes
   grid      :     358473. kBytes
   one-center:        344. kBytes
   wavefun   :    1131582. kBytes
 
     INWAV:  cpu time    0.0002: real time    0.0003
 Broyden mixing: mesh for mixing (old mesh)
   NGX = 45   NGY = 45   NGZ = 45
  (NGX  =180   NGY  =180   NGZ  =180)
  gives a total of  91125 points

 initial charge density was supplied:
 charge density of overlapping atoms calculated
 number of electron     352.0000000 magnetization 
 keeping initial charge density in first step


--------------------------------------------------------------------------------------------------------


 Maximum index for non-local projection operator          5009
 Maximum index for augmentation-charges         12543 (set IRDMAX)


--------------------------------------------------------------------------------------------------------


 First call to EWALD:  gamma=   0.185
 Maximum number of real-space cells 3x 3x 3
 Maximum number of reciprocal cells 3x 3x 3

    FEWALD:  cpu time    0.0806: real time    0.0806


--------------------------------------- Iteration      1(   1)  ---------------------------------------


    POTLOK:  cpu time    0.1376: real time    0.1376
    SETDIJ:  cpu time    0.1155: real time    0.1155
     EDDAV:  cpu time    6.1416: real time    6.1408
 BZINTS: Fermi energy:   16.214222;  352.000000 electrons
         Band energy: 0.121257E+04;  BLOECHL correction:   -0.022301
       DOS:  cpu time    0.0248: real time    0.0248
    --------------------------------------------
      LOOP:  cpu time    6.4195: real time    6.4186

 eigenvalue-minimisations  :  3728
 total energy-change (2. order) : 0.1352037E+04  (-0.1967198E+05)
 number of electron     352.0000000 magnetization 
 augmentation part      352.0000000 magnetization 

 Free energy of the ion-electron system (eV)
  ---------------------------------------------------
  alpha Z        PSCENC =      1012.26277164
  Ewald energy   TEWEN  =     -9967.99574540
  -Hartree energ DENC   =     -1059.79982863
  -exchange      EXHF   =         0.00000000
  -V(xc)+E(xc)   XCENC  =       895.24761458
  PAW double counting   =      5912.33983061    -5839.33960861
  entropy T*S    EENTRO =         0.00000000
  eigenvalues    EBANDS =      1212.56668428
  atomic energy  EATOM  =      9186.75495500
  Solvation  Ediel_sol  =         0.00000000
  ---------------------------------------------------
  free energy    TOTEN  =      1352.03667348 eV

  energy without entropy =     1352.03667348  energy(sigma->0) =     1352.03667348


--------------------------------------------------------------------------------------------------------




--------------------------------------- Iteration      1(   2)  ---------------------------------------


     EDDAV:  cpu time    7.2169: real time    7.2153
 BZINTS: Fermi energy:    3.756833;  352.000000 electrons
         Band energy:-0.851242E+03;  BLOECHL correction:    0.000000
       DOS:  cpu time    0.0227: real time    0.0227
    --------------------------------------------
      LOOP:  cpu time    7.2396: real time    7.2380

 eigenvalue-minimisations  :  4664
 total energy-change (2. order) :-0.2063809E+04  (-0.1946574E+04)
 number of electron     352.0000000 magnetization 
 augmentation part      352.0000000 magnetization 

 Free energy of the ion-electron system (eV)
  ---------------------------------------------------
  alpha Z        PSCENC =      1012.26277164
  Ewald energy   TEWEN  =     -9967.99574540
  -Hartree energ DENC   =     -1059.79982863
  -exchange      EXHF   =         0.00000000
  -V(xc)+E(xc)   XCENC  =       895.24761458
  PAW double counting   =      5912.33983061    -5839.33960861
  entropy T*S    EENTRO =         0.00000000
  eigenvalues    EBANDS =      -851.24197480
  atomic energy  EATOM  =      9186.75495500
  Solvation  Ediel_sol  =         0.00000000
  ---------------------------------------------------
  free energy    TOTEN  =      -711.77198560 eV

  energy without entropy =     -711.77198560  energy(sigma->0) =     -711.77198560


--------------------------------------------------------------------------------------------------------




--------------------------------------- Iteration      1(   3)  ---------------------------------------


     EDDAV:  cpu time    6.9298: real time    6.9282
 BZINTS: Fermi energy:    3.045104;  352.000000 electrons
         Band energy:-0.975637E+03;  BLOECHL correction:   -0.000000
       DOS:  cpu time    0.0235: real time    0.0235
    --------------------------------------------
      LOOP:  cpu time    6.9533: real time    6.9517

 eigenvalue-minimisations  :  4416
 total energy-change (2. order) :-0.1243951E+03  (-0.1211593E+03)
 number of electron     352.0000000 magnetization 
 augmentation part      352.0000000 magnetization 

 Free energy of the ion-electron system (eV)
  ---------------------------------------------------
  alpha Z        PSCENC =      1012.26277164
  Ewald energy   TEWEN  =     -9967.99574540
  -Hartree energ DENC   =     -1059.79982863
  -exchange      EXHF   =         0.00000000
  -V(xc)+E(xc)   XCENC  =       895.24761458
  PAW double counting   =      5912.33983061    -5839.33960861
  entropy T*S    EENTRO =         0.00000000
  eigenvalues    EBANDS =      -975.63705453
  atomic energy  EATOM  =      9186.75495500
  Solvation  Ediel_sol  =         0.00000000
  ---------------------------------------------------
  free energy    TOTEN  =      -836.16706534 eV

  energy without entropy =     -836.16706534  energy(sigma->0) =     -836.16706534


--------------------------------------------------------------------------------------------------------




--------------------------------------- Iteration      1(   4)  ---------------------------------------


     EDDAV:  cpu time    6.8366: real time    6.8353
 BZINTS: Fermi energy:    3.021747;  352.000000 electrons
         Band energy:-0.978492E+03;  BLOECHL correction:    0.000000
       DOS:  cpu time    0.0234: real time    0.0234
    --------------------------------------------
      LOOP:  cpu time    6.8600: real time    6.8586

 eigenvalue-minimisations  :  4336
 total energy-change (2. order) :-0.2855134E+01  (-0.2838768E+01)
 number of electron     352.0000000 magnetization 
 augmentation part      352.0000000 magnetization 

 Free energy of the ion-electron system (eV)
  ---------------------------------------------------
  alpha Z        PSCENC =      1012.26277164
  Ewald energy   TEWEN  =     -9967.99574540
  -Hartree energ DENC   =     -1059.79982863
  -exchange      EXHF   =         0.00000000
  -V(xc)+E(xc)   XCENC  =       895.24761458
  PAW double counting   =      5912.33983061    -5839.33960861
  entropy T*S    EENTRO =         0.00000000
  eigenvalues    EBANDS =      -978.49218882
  atomic energy  EATOM  =      9186.75495500
  Solvation  Ediel_sol  =         0.00000000
  ---------------------------------------------------
  free energy    TOTEN  =      -839.02219963 eV

  energy without entropy =     -839.02219963  energy(sigma->0) =     -839.02219963


--------------------------------------------------------------------------------------------------------




--------------------------------------- Iteration      1(   5)  ---------------------------------------


     EDDAV:  cpu time    6.8387: real time    6.8374
 BZINTS: Fermi energy:    3.020593;  352.000000 electrons
         Band energy:-0.978571E+03;  BLOECHL correction:    0.000000
       DOS:  cpu time    0.0249: real time    0.0249
    CHARGE:  cpu time    1.7125: real time    1.7121
    MIXING:  cpu time    0.0569: real time    0.0568
    --------------------------------------------
      LOOP:  cpu time    8.6330: real time    8.6313

 eigenvalue-minimisations  :  4352
 total energy-change (2. order) :-0.7903288E-01  (-0.7890462E-01)
 number of electron     351.9999999 magnetization 
 augmentation part        0.5409732 magnetization 

 Broyden mixing:
  rms(total) = 0.38227E+01    rms(broyden)= 0.38227E+01
  rms(prec ) = 0.51572E+01
  weight for this iteration     100.00

 Free energy of the ion-electron system (eV)
  ---------------------------------------------------
  alpha Z        PSCENC =      1012.26277164
  Ewald energy   TEWEN  =     -9967.99574540
  -Hartree energ DENC   =     -1059.79982863
  -exchange      EXHF   =         0.00000000
  -V(xc)+E(xc)   XCENC  =       895.24761458
  PAW double counting   =      5912.33983061    -5839.33960861
  entropy T*S    EENTRO =         0.00000000
  eigenvalues    EBANDS =      -978.57122170
  atomic energy  EATOM  =      9186.75495500
  Solvation  Ediel_sol  =         0.00000000
  ---------------------------------------------------
  free energy    TOTEN  =      -839.10123250 eV

  energy without entropy =     -839.10123250  energy(sigma->0) =     -839.10123250


--------------------------------------------------------------------------------------------------------




--------------------------------------- Iteration      1(   6)  ---------------------------------------


    POTLOK:  cpu time    0.1296: real time    0.1297
    SETDIJ:  cpu time    0.1186: real time    0.1186
    EDDIAG:  cpu time    1.3148: real time    1.3147
  RMM-DIIS:  cpu time    5.5851: real time    5.6670
    ORTHCH:  cpu time    0.0362: real time    0.0365
 BZINTS: Fermi energy:    3.330381;  352.000000 electrons
         Band energy:-0.765575E+03;  BLOECHL correction:   -0.017346
       DOS:  cpu time    0.0294: real time    0.0294
    CHARGE:  cpu time    1.6803: real time    1.6818
    MIXING:  cpu time    0.0584: real time    0.0583
    --------------------------------------------
      LOOP:  cpu time    8.9523: real time    9.0359

 eigenvalue-minimisations  :  3728
 total energy-change (2. order) : 0.3503672E+02  (-0.3191541E+01)
 number of electron     351.9999999 magnetization 
 augmentation part        0.4736131 magnetization 

 Broyden mixing:
  rms(total) = 0.21440E+01    rms(broyden)= 0.21440E+01
  rms(prec ) = 0.27440E+01
  weight for this iteration     100.00

 eigenvalues of (default mixing * dielectric matrix)
  average eigenvalue GAMMA=   2.1189
  2.1189

 Free energy of the ion-electron system (eV)
  ---------------------------------------------------
  alpha Z        PSCENC =      1012.26277164
  Ewald energy   TEWEN  =     -9967.99574540
  -Hartree energ DENC   =     -1244.57536695
  -exchange      EXHF   =         0.00000000
  -V(xc)+E(xc)   XCENC  =       907.01318093
  PAW double counting   =     13298.59458800   -13230.54355375
  entropy T*S    EENTRO =         0.00000000
  eigenvalues    EBANDS =      -765.57533792
  atomic energy  EATOM  =      9186.75495500
  Solvation  Ediel_sol  =         0.00000000
  ---------------------------------------------------
  free energy    TOTEN  =      -804.06450843 eV

  energy without entropy =     -804.06450843  energy(sigma->0) =     -804.06450843


--------------------------------------------------------------------------------------------------------




--------------------------------------- Iteration      1(   7)  ---------------------------------------


    POTLOK:  cpu time    0.1230: real time    0.1233
    SETDIJ:  cpu time    0.1192: real time    0.1191
    EDDIAG:  cpu time    1.3194: real time    1.3203
  RMM-DIIS:  cpu time    5.6032: real time    5.5766
    ORTHCH:  cpu time    0.0360: real time    0.0360
 BZINTS: Fermi energy:    3.908954;  352.000000 electrons
         Band energy:-0.552167E+03;  BLOECHL correction:   -0.111223
       DOS:  cpu time    0.0339: real time    0.0339
    CHARGE:  cpu time    1.7125: real time    1.7138
    MIXING:  cpu time    0.0587: real time    0.0587
    --------------------------------------------
      LOOP:  cpu time    9.0059: real time    8.9817

 eigenvalue-minimisations  :  3728
 total energy-change (2. order) : 0.1037638E+02  (-0.3141689E+01)
 number of electron     351.9999998 magnetization 
 augmentation part        0.3305651 magnetization 

 Broyden mixing:
  rms(total) = 0.49923E+00    rms(broyden)= 0.49923E+00
  rms(prec ) = 0.57769E+00
  weight for this iteration     100.00

 eigenvalues of (default mixing * dielectric matrix)
  average eigenvalue GAMMA=   1.7167
  1.1471  2.2863

 Free energy of the ion-electron system (eV)
  ---------------------------------------------------
  alpha Z        PSCENC =      1012.26277164
  Ewald energy   TEWEN  =     -9967.99574540
  -Hartree energ DENC   =     -1458.81765845
  -exchange      EXHF   =         0.00000000
  -V(xc)+E(xc)   XCENC  =       922.91832215
  PAW double counting   =     26392.60777672   -26329.25145152
  entropy T*S    EENTRO =         0.00000000
  eigenvalues    EBANDS =      -552.16709769
  atomic energy  EATOM  =      9186.75495500
  Solvation  Ediel_sol  =         0.00000000
  ---------------------------------------------------
  free energy    TOTEN  =      -793.68812754 eV

  energy without entropy =     -793.68812754  energy(sigma->0) =     -793.68812754


--------------------------------------------------------------------------------------------------------




--------------------------------------- Iteration      1(   8)  ---------------------------------------


    POTLOK:  cpu time    0.1293: real time    0.1293
    SETDIJ:  cpu time    0.1202: real time    0.1207
    EDDIAG:  cpu time    1.3231: real time    1.3237
  RMM-DIIS:  cpu time    5.5997: real time    5.5722
    ORTHCH:  cpu time    0.0356: real time    0.0356
 BZINTS: Fermi energy:    3.982056;  352.000000 electrons
         Band energy:-0.530487E+03;  BLOECHL correction:   -0.103883
       DOS:  cpu time    0.0342: real time    0.0344
    CHARGE:  cpu time    1.6890: real time    1.6896
    MIXING:  cpu time    0.0591: real time    0.0595
    --------------------------------------------
      LOOP:  cpu time    8.9902: real time    8.9650

 eigenvalue-minimisations  :  3728
 total energy-change (2. order) :-0.1793690E+00  (-0.3348494E+00)
 number of electron     351.9999998 magnetization 
 augmentation part        0.2744520 magnetization 

 Broyden mixing:
  rms(total) = 0.22307E+00    rms(broyden)= 0.22307E+00
  rms(prec ) = 0.26017E+00
  weight for this iteration     100.00

 eigenvalues of (default mixing * dielectric matrix)
  average eigenvalue GAMMA=   1.8143
  1.2202  2.3297  1.8931

 Free energy of the ion-electron system (eV)
  ---------------------------------------------------
  alpha Z        PSCENC =      1012.26277164
  Ewald energy   TEWEN  =     -9967.99574540
  -Hartree energ DENC   =     -1482.92595500
  -exchange      EXHF   =         0.00000000
  -V(xc)+E(xc)   XCENC  =       925.47236606
  PAW double counting   =     30165.62341602   -30102.57235990
  entropy T*S    EENTRO =         0.00000000
  eigenvalues    EBANDS =      -530.48694503
  atomic energy  EATOM  =      9186.75495500
  Solvation  Ediel_sol  =         0.00000000
  ---------------------------------------------------
  free energy    TOTEN  =      -793.86749659 eV

  energy without entropy =     -793.86749659  energy(sigma->0) =     -793.86749659


--------------------------------------------------------------------------------------------------------




--------------------------------------- Iteration      1(   9)  ---------------------------------------


    POTLOK:  cpu time    0.1230: real time    0.1231
    SETDIJ:  cpu time    0.1163: real time    0.1165
    EDDIAG:  cpu time    1.3174: real time    1.3181
  RMM-DIIS:  cpu time    5.6030: real time    5.5767
    ORTHCH:  cpu time    0.0355: real time    0.0355
 BZINTS: Fermi energy:    4.018342;  352.000000 electrons
         Band energy:-0.530917E+03;  BLOECHL correction:   -0.145304
       DOS:  cpu time    0.0323: real time    0.0323
    CHARGE:  cpu time    1.6959: real time    1.6969
    MIXING:  cpu time    0.0604: real time    0.0604
    --------------------------------------------
      LOOP:  cpu time    8.9838: real time    8.9593

 eigenvalue-minimisations  :  3728
 total energy-change (2. order) :-0.6416746E-01  (-0.3322156E-01)
 number of electron     351.9999998 magnetization 
 augmentation part        0.2559211 magnetization 

 Broyden mixing:
  rms(total) = 0.74972E-01    rms(broyden)= 0.74971E-01
  rms(prec ) = 0.10756E+00
  weight for this iteration     100.00

 eigenvalues of (default mixing * dielectric matrix)
  average eigenvalue GAMMA=   1.7294
  2.3847  2.3847  1.0741  1.0741

 Free energy of the ion-electron system (eV)
  ---------------------------------------------------
  alpha Z        PSCENC =      1012.26277164
  Ewald energy   TEWEN  =     -9967.99574540
  -Hartree energ DENC   =     -1483.20966517
  -exchange      EXHF   =         0.00000000
  -V(xc)+E(xc)   XCENC  =       925.86931058
  PAW double counting   =     31816.88090670   -31753.57674881
  entropy T*S    EENTRO =         0.00000000
  eigenvalues    EBANDS =      -530.91744859
  atomic energy  EATOM  =      9186.75495500
  Solvation  Ediel_sol  =         0.00000000
  ---------------------------------------------------
  free energy    TOTEN  =      -793.93166405 eV

  energy without entropy =     -793.93166405  energy(sigma->0) =     -793.93166405


--------------------------------------------------------------------------------------------------------




--------------------------------------- Iteration      1(  10)  ---------------------------------------


    POTLOK:  cpu time    0.1230: real time    0.1231
    SETDIJ:  cpu time    0.1102: real time    0.1104
    EDDIAG:  cpu time    1.3261: real time    1.3267
  RMM-DIIS:  cpu time    5.6067: real time    5.5796
    ORTHCH:  cpu time    0.0355: real time    0.0355
 BZINTS: Fermi energy:    3.987030;  352.000000 electrons
         Band energy:-0.536332E+03;  BLOECHL correction:   -0.116160
       DOS:  cpu time    0.0299: real time    0.0299
    CHARGE:  cpu time    1.7077: real time    1.7094
    MIXING:  cpu time    0.0619: real time    0.0618
    --------------------------------------------
      LOOP:  cpu time    9.0009: real time    8.9764

 eigenvalue-minimisations  :  3728
 total energy-change (2. order) : 0.2460976E-01  (-0.1140474E-01)
 number of electron     351.9999998 magnetization 
 augmentation part        0.2475124 magnetization 

 Broyden mixing:
  rms(total) = 0.28069E-01    rms(broyden)= 0.28068E-01
  rms(prec ) = 0.48065E-01
  weight for this iteration     100.00

 eigenvalues of (default mixing * dielectric matrix)
  average eigenvalue GAMMA=   1.6466
  2.5086  1.8708  1.8708  0.9915  0.9915

 Free energy of the ion-electron system (eV)
  ---------------------------------------------------
  alpha Z        PSCENC =      1012.26277164
  Ewald energy   TEWEN  =     -9967.99574540
  -Hartree energ DENC   =     -1477.69252527
  -exchange      EXHF   =         0.00000000
  -V(xc)+E(xc)   XCENC  =       925.58240210
  PAW double counting   =     31926.27636234   -31862.76329233
  entropy T*S    EENTRO =         0.00000000
  eigenvalues    EBANDS =      -536.33198238
  atomic energy  EATOM  =      9186.75495500
  Solvation  Ediel_sol  =         0.00000000
  ---------------------------------------------------
  free energy    TOTEN  =      -793.90705429 eV

  energy without entropy =     -793.90705429  energy(sigma->0) =     -793.90705429


--------------------------------------------------------------------------------------------------------




--------------------------------------- Iteration      1(  11)  ---------------------------------------


    POTLOK:  cpu time    0.1299: real time    0.1301
    SETDIJ:  cpu time    0.1104: real time    0.1107
    EDDIAG:  cpu time    1.3173: real time    1.3183
  RMM-DIIS:  cpu time    5.6511: real time    5.6216
    ORTHCH:  cpu time    0.0356: real time    0.0356
 BZINTS: Fermi energy:    3.995764;  352.000000 electrons
         Band energy:-0.533892E+03;  BLOECHL correction:   -0.124937
       DOS:  cpu time    0.0300: real time    0.0300
    CHARGE:  cpu time    1.6980: real time    1.6997
    MIXING:  cpu time    0.0613: real time    0.0613
    --------------------------------------------
      LOOP:  cpu time    9.0336: real time    9.0072

 eigenvalue-minimisations  :  3748
 total energy-change (2. order) :-0.5840571E-02  (-0.2223774E-02)
 number of electron     351.9999998 magnetization 
 augmentation part        0.2450384 magnetization 

 Broyden mixing:
  rms(total) = 0.93889E-02    rms(broyden)= 0.93888E-02
  rms(prec ) = 0.11236E-01
  weight for this iteration     100.00

 eigenvalues of (default mixing * dielectric matrix)
  average eigenvalue GAMMA=   1.6154
  2.4697  2.4697  1.7130  1.1346  0.9526  0.9526

 Free energy of the ion-electron system (eV)
  ---------------------------------------------------
  alpha Z        PSCENC =      1012.26277164
  Ewald energy   TEWEN  =     -9967.99574540
  -Hartree energ DENC   =     -1480.26825651
  -exchange      EXHF   =         0.00000000
  -V(xc)+E(xc)   XCENC  =       925.73735918
  PAW double counting   =     32089.14285482   -32025.65527620
  entropy T*S    EENTRO =         0.00000000
  eigenvalues    EBANDS =      -533.89155739
  atomic energy  EATOM  =      9186.75495500
  Solvation  Ediel_sol  =         0.00000000
  ---------------------------------------------------
  free energy    TOTEN  =      -793.91289486 eV

  energy without entropy =     -793.91289486  energy(sigma->0) =     -793.91289486


--------------------------------------------------------------------------------------------------------




--------------------------------------- Iteration      1(  12)  ---------------------------------------


    POTLOK:  cpu time    0.1230: real time    0.1233
    SETDIJ:  cpu time    0.1101: real time    0.1103
    EDDIAG:  cpu time    1.3125: real time    1.3135
  RMM-DIIS:  cpu time    5.7426: real time    5.7195
    ORTHCH:  cpu time    0.0358: real time    0.0358
 BZINTS: Fermi energy:    3.993740;  352.000000 electrons
         Band energy:-0.534377E+03;  BLOECHL correction:   -0.124005
       DOS:  cpu time    0.0346: real time    0.0345
    CHARGE:  cpu time    1.6699: real time    1.6706
    MIXING:  cpu time    0.0623: real time    0.0623
    --------------------------------------------
      LOOP:  cpu time    9.0908: real time    9.0697

 eigenvalue-minimisations  :  3826
 total energy-change (2. order) : 0.1939512E-03  (-0.5255757E-03)
 number of electron     351.9999998 magnetization 
 augmentation part        0.2430439 magnetization 

 Broyden mixing:
  rms(total) = 0.41960E-02    rms(broyden)= 0.41960E-02
  rms(prec ) = 0.54589E-02
  weight for this iteration     100.00

 eigenvalues of (default mixing * dielectric matrix)
  average eigenvalue GAMMA=   1.6685
  2.5399  2.5399  1.8603  1.8603  0.9957  0.9957  0.8874

 Free energy of the ion-electron system (eV)
  ---------------------------------------------------
  alpha Z        PSCENC =      1012.26277164
  Ewald energy   TEWEN  =     -9967.99574540
  -Hartree energ DENC   =     -1479.76861418
  -exchange      EXHF   =         0.00000000
  -V(xc)+E(xc)   XCENC  =       925.70092093
  PAW double counting   =     32067.08222494   -32003.57184068
  entropy T*S    EENTRO =         0.00000000
  eigenvalues    EBANDS =      -534.37737317
  atomic energy  EATOM  =      9186.75495500
  Solvation  Ediel_sol  =         0.00000000
  ---------------------------------------------------
  free energy    TOTEN  =      -793.91270091 eV

  energy without entropy =     -793.91270091  energy(sigma->0) =     -793.91270091


--------------------------------------------------------------------------------------------------------




--------------------------------------- Iteration      1(  13)  ---------------------------------------


    POTLOK:  cpu time    0.1232: real time    0.1235
    SETDIJ:  cpu time    0.1169: real time    0.1168
    EDDIAG:  cpu time    1.3173: real time    1.3184
  RMM-DIIS:  cpu time    5.6421: real time    5.6142
    ORTHCH:  cpu time    0.0359: real time    0.0359
 BZINTS: Fermi energy:    3.994365;  352.000000 electrons
         Band energy:-0.534399E+03;  BLOECHL correction:   -0.123570
       DOS:  cpu time    0.0330: real time    0.0330
    CHARGE:  cpu time    1.6797: real time    1.6800
    MIXING:  cpu time    0.0659: real time    0.0659
    --------------------------------------------
      LOOP:  cpu time    9.0140: real time    8.9876

 eigenvalue-minimisations  :  3743
 total energy-change (2. order) : 0.2945053E-03  (-0.1073357E-03)
 number of electron     351.9999998 magnetization 
 augmentation part        0.2420682 magnetization 

 Broyden mixing:
  rms(total) = 0.26307E-02    rms(broyden)= 0.26307E-02
  rms(prec ) = 0.44687E-02
  weight for this iteration     100.00

 eigenvalues of (default mixing * dielectric matrix)
  average eigenvalue GAMMA=   1.6829
  3.1642  2.6753  2.1271  1.6142  0.9485  0.9485  0.9928  0.9928

 Free energy of the ion-electron system (eV)
  ---------------------------------------------------
  alpha Z        PSCENC =      1012.26277164
  Ewald energy   TEWEN  =     -9967.99574540
  -Hartree energ DENC   =     -1479.76259073
  -exchange      EXHF   =         0.00000000
  -V(xc)+E(xc)   XCENC  =       925.71318615
  PAW double counting   =     32071.27412385   -32007.76014068
  entropy T*S    EENTRO =         0.00000000
  eigenvalues    EBANDS =      -534.39896624
  atomic energy  EATOM  =      9186.75495500
  Solvation  Ediel_sol  =         0.00000000
  ---------------------------------------------------
  free energy    TOTEN  =      -793.91240640 eV

  energy without entropy =     -793.91240640  energy(sigma->0) =     -793.91240640


--------------------------------------------------------------------------------------------------------




--------------------------------------- Iteration      1(  14)  ---------------------------------------


    POTLOK:  cpu time    0.1242: real time    0.1244
    SETDIJ:  cpu time    0.1165: real time    0.1168
    EDDIAG:  cpu time    1.3190: real time    1.3202
  RMM-DIIS:  cpu time    5.6186: real time    5.5905
    ORTHCH:  cpu time    0.0355: real time    0.0355
 BZINTS: Fermi energy:    3.994973;  352.000000 electrons
         Band energy:-0.534183E+03;  BLOECHL correction:   -0.124142
       DOS:  cpu time    0.0370: real time    0.0370
    CHARGE:  cpu time    1.6999: real time    1.7013
    MIXING:  cpu time    0.0642: real time    0.0641
    --------------------------------------------
      LOOP:  cpu time    9.0149: real time    8.9898

 eigenvalue-minimisations  :  3729
 total energy-change (2. order) :-0.5234008E-03  (-0.3685601E-04)
 number of electron     351.9999998 magnetization 
 augmentation part        0.2417819 magnetization 

 Broyden mixing:
  rms(total) = 0.64485E-03    rms(broyden)= 0.64481E-03
  rms(prec ) = 0.96145E-03
  weight for this iteration     100.00

 eigenvalues of (default mixing * dielectric matrix)
  average eigenvalue GAMMA=   1.5982
  2.8107  2.6121  1.7416  1.7416  1.3558  1.3558  0.9570  0.9570  0.8520

 Free energy of the ion-electron system (eV)
  ---------------------------------------------------
  alpha Z        PSCENC =      1012.26277164
  Ewald energy   TEWEN  =     -9967.99574540
  -Hartree energ DENC   =     -1479.98679174
  -exchange      EXHF   =         0.00000000
  -V(xc)+E(xc)   XCENC  =       925.72324642
  PAW double counting   =     32064.20598251   -32000.69457589
  entropy T*S    EENTRO =         0.00000000
  eigenvalues    EBANDS =      -534.18277235
  atomic energy  EATOM  =      9186.75495500
  Solvation  Ediel_sol  =         0.00000000
  ---------------------------------------------------
  free energy    TOTEN  =      -793.91292980 eV

  energy without entropy =     -793.91292980  energy(sigma->0) =     -793.91292980


--------------------------------------------------------------------------------------------------------




--------------------------------------- Iteration      1(  15)  ---------------------------------------


    POTLOK:  cpu time    0.1281: real time    0.1303
    SETDIJ:  cpu time    0.1161: real time    0.1161
    EDDIAG:  cpu time    1.3168: real time    1.3174
  RMM-DIIS:  cpu time    5.7040: real time    5.6796
    ORTHCH:  cpu time    0.0358: real time    0.0358
 BZINTS: Fermi energy:    3.994839;  352.000000 electrons
         Band energy:-0.534200E+03;  BLOECHL correction:   -0.124098
       DOS:  cpu time    0.0287: real time    0.0287
    CHARGE:  cpu time    1.6718: real time    1.6721
    MIXING:  cpu time    0.0657: real time    0.0660
    --------------------------------------------
      LOOP:  cpu time    9.0669: real time    9.0458

 eigenvalue-minimisations  :  3802
 total energy-change (2. order) : 0.2219448E-04  (-0.7925214E-05)
 number of electron     351.9999998 magnetization 
 augmentation part        0.2416203 magnetization 

 Broyden mixing:
  rms(total) = 0.60673E-03    rms(broyden)= 0.60673E-03
  rms(prec ) = 0.70098E-03
  weight for this iteration     100.00

 eigenvalues of (default mixing * dielectric matrix)
  average eigenvalue GAMMA=   1.6368
  3.0454  2.5609  2.4345  2.0159  1.6980  1.0159  1.0159  0.8807  0.8807  0.8203

 Free energy of the ion-electron system (eV)
  ---------------------------------------------------
  alpha Z        PSCENC =      1012.26277164
  Ewald energy   TEWEN  =     -9967.99574540
  -Hartree energ DENC   =     -1479.96999661
  -exchange      EXHF   =         0.00000000
  -V(xc)+E(xc)   XCENC  =       925.72282823
  PAW double counting   =     32069.08252961   -32005.57074619
  entropy T*S    EENTRO =         0.00000000
  eigenvalues    EBANDS =      -534.19950389
  atomic energy  EATOM  =      9186.75495500
  Solvation  Ediel_sol  =         0.00000000
  ---------------------------------------------------
  free energy    TOTEN  =      -793.91290761 eV

  energy without entropy =     -793.91290761  energy(sigma->0) =     -793.91290761


--------------------------------------------------------------------------------------------------------




--------------------------------------- Iteration      1(  16)  ---------------------------------------


    POTLOK:  cpu time    0.1233: real time    0.1235
    SETDIJ:  cpu time    0.1201: real time    0.1201
    EDDIAG:  cpu time    1.3229: real time    1.3236
  RMM-DIIS:  cpu time    5.6033: real time    5.5757
    ORTHCH:  cpu time    0.0359: real time    0.0359
 BZINTS: Fermi energy:    3.994957;  352.000000 electrons
         Band energy:-0.534187E+03;  BLOECHL correction:   -0.124149
       DOS:  cpu time    0.0331: real time    0.0330
    CHARGE:  cpu time    1.6857: real time    1.6872
    MIXING:  cpu time    0.0671: real time    0.0671
    --------------------------------------------
      LOOP:  cpu time    8.9913: real time    8.9660

 eigenvalue-minimisations  :  3696
 total energy-change (2. order) :-0.4430742E-04  (-0.1789178E-05)
 number of electron     351.9999998 magnetization 
 augmentation part        0.2415193 magnetization 

 Broyden mixing:
  rms(total) = 0.19853E-03    rms(broyden)= 0.19853E-03
  rms(prec ) = 0.29030E-03
  weight for this iteration     100.00

 eigenvalues of (default mixing * dielectric matrix)
  average eigenvalue GAMMA=   1.5986
  3.1517  2.3827  2.3827  1.8671  1.8671  1.0740  1.0740  0.9871  0.9871  0.9736
  0.8378

 Free energy of the ion-electron system (eV)
  ---------------------------------------------------
  alpha Z        PSCENC =      1012.26277164
  Ewald energy   TEWEN  =     -9967.99574540
  -Hartree energ DENC   =     -1479.98357512
  -exchange      EXHF   =         0.00000000
  -V(xc)+E(xc)   XCENC  =       925.72427745
  PAW double counting   =     32067.36994978   -32003.85883084
  entropy T*S    EENTRO =         0.00000000
  eigenvalues    EBANDS =      -534.18675444
  atomic energy  EATOM  =      9186.75495500
  Solvation  Ediel_sol  =         0.00000000
  ---------------------------------------------------
  free energy    TOTEN  =      -793.91295191 eV

  energy without entropy =     -793.91295191  energy(sigma->0) =     -793.91295191


--------------------------------------------------------------------------------------------------------




--------------------------------------- Iteration      1(  17)  ---------------------------------------


    POTLOK:  cpu time    0.1234: real time    0.1237
    SETDIJ:  cpu time    0.1156: real time    0.1155
    EDDIAG:  cpu time    1.3175: real time    1.3174
  RMM-DIIS:  cpu time    4.0159: real time    4.0058
    ORTHCH:  cpu time    0.0355: real time    0.0355
 BZINTS: Fermi energy:    3.994968;  352.000000 electrons
         Band energy:-0.534187E+03;  BLOECHL correction:   -0.124142
       DOS:  cpu time    0.0299: real time    0.0299
    CHARGE:  cpu time    1.7068: real time    1.7073
    MIXING:  cpu time    0.0716: real time    0.0715
    --------------------------------------------
      LOOP:  cpu time    7.4162: real time    7.4066

 eigenvalue-minimisations  :  2614
 total energy-change (2. order) : 0.7931273E-05  (-0.2925187E-06)
 number of electron     351.9999998 magnetization 
 augmentation part        0.2414902 magnetization 

 Broyden mixing:
  rms(total) = 0.12947E-03    rms(broyden)= 0.12947E-03
  rms(prec ) = 0.18630E-03
  weight for this iteration     100.00

 eigenvalues of (default mixing * dielectric matrix)
  average eigenvalue GAMMA=   1.6364
  3.3001  2.7014  2.3573  2.3573  1.8183  1.2255  1.2255  1.1051  0.9352  0.9352
  0.8972  0.7783

 Free energy of the ion-electron system (eV)
  ---------------------------------------------------
  alpha Z        PSCENC =      1012.26277164
  Ewald energy   TEWEN  =     -9967.99574540
  -Hartree energ DENC   =     -1479.98374439
  -exchange      EXHF   =         0.00000000
  -V(xc)+E(xc)   XCENC  =       925.72447189
[...]
   0.902E+01 0.670E+01 0.449E+02   -.913E+01 -.677E+01 -.499E+02   0.110E+00 0.767E-01 0.501E+01   0.437E-05 0.155E-04 0.137E-04
   0.902E+01 0.670E+01 0.449E+02   -.913E+01 -.677E+01 -.499E+02   0.110E+00 0.767E-01 0.501E+01   0.437E-05 0.155E-04 0.137E-04
   0.172E+02 0.338E+02 0.265E+02   -.186E+02 -.382E+02 -.287E+02   0.139E+01 0.433E+01 0.214E+01   0.275E-05 0.564E-05 0.193E-04
   0.172E+02 0.338E+02 0.265E+02   -.186E+02 -.382E+02 -.287E+02   0.139E+01 0.433E+01 0.214E+01   0.275E-05 0.564E-05 0.193E-04
   0.172E+02 0.338E+02 0.265E+02   -.186E+02 -.382E+02 -.287E+02   0.139E+01 0.433E+01 0.214E+01   0.275E-05 0.564E-05 0.193E-04
   0.172E+02 0.338E+02 0.265E+02   -.186E+02 -.382E+02 -.287E+02   0.139E+01 0.433E+01 0.214E+01   0.275E-05 0.564E-05 0.193E-04
   0.172E+02 0.338E+02 0.265E+02   -.186E+02 -.382E+02 -.287E+02   0.139E+01 0.433E+01 0.214E+01   0.275E-05 0.564E-05 0.193E-04
   0.172E+02 0.338E+02 0.265E+02   -.186E+02 -.382E+02 -.287E+02   0.139E+01 0.433E+01 0.214E+01   0.275E-05 0.564E-05 0.193E-04
   0.172E+02 0.338E+02 0.265E+02   -.186E+02 -.382E+02 -.287E+02   0.139E+01 0.433E+01 0.214E+01   0.275E-05 0.564E-05 0.193E-04
   0.172E+02 0.338E+02 0.265E+02   -.186E+02 -.382E+02 -.287E+02   0.139E+01 0.433E+01 0.214E+01   0.275E-05 0.564E-05 0.193E-04
   -.373E+02 -.667E+01 -.265E+02   0.419E+02 0.676E+01 0.286E+02   -.457E+01 -.797E-01 -.215E+01   -.157E-04 -.246E-05 -.752E-05
   -.373E+02 -.667E+01 -.265E+02   0.419E+02 0.676E+01 0.286E+02   -.457E+01 -.797E-01 -.215E+01   -.157E-04 -.246E-05 -.752E-05
   -.373E+02 -.667E+01 -.265E+02   0.419E+02 0.676E+01 0.286E+02   -.457E+01 -.797E-01 -.215E+01   -.157E-04 -.246E-05 -.752E-05
   -.373E+02 -.667E+01 -.265E+02   0.419E+02 0.676E+01 0.286E+02   -.457E+01 -.797E-01 -.215E+01   -.157E-04 -.246E-05 -.752E-05
   -.373E+02 -.667E+01 -.265E+02   0.419E+02 0.676E+01 0.286E+02   -.457E+01 -.797E-01 -.215E+01   -.157E-04 -.246E-05 -.752E-05
   -.373E+02 -.667E+01 -.265E+02   0.419E+02 0.676E+01 0.286E+02   -.457E+01 -.797E-01 -.215E+01   -.157E-04 -.246E-05 -.752E-05
   -.373E+02 -.667E+01 -.265E+02   0.419E+02 0.676E+01 0.286E+02   -.457E+01 -.797E-01 -.215E+01   -.157E-04 -.246E-05 -.752E-05
   -.373E+02 -.667E+01 -.265E+02   0.419E+02 0.676E+01 0.286E+02   -.457E+01 -.797E-01 -.215E+01   -.157E-04 -.246E-05 -.752E-05
   -.902E+01 -.670E+01 -.449E+02   0.913E+01 0.677E+01 0.499E+02   -.110E+00 -.767E-01 -.501E+01   -.437E-05 -.155E-04 -.137E-04
   -.902E+01 -.670E+01 -.449E+02   0.913E+01 0.677E+01 0.499E+02   -.110E+00 -.767E-01 -.501E+01   -.437E-05 -.155E-04 -.137E-04
   -.902E+01 -.670E+01 -.449E+02   0.913E+01 0.677E+01 0.499E+02   -.110E+00 -.767E-01 -.501E+01   -.437E-05 -.155E-04 -.137E-04
   -.902E+01 -.670E+01 -.449E+02   0.913E+01 0.677E+01 0.499E+02   -.110E+00 -.767E-01 -.501E+01   -.437E-05 -.155E-04 -.137E-04
   -.902E+01 -.670E+01 -.449E+02   0.913E+01 0.677E+01 0.499E+02   -.110E+00 -.767E-01 -.501E+01   -.437E-05 -.155E-04 -.137E-04
   -.902E+01 -.670E+01 -.449E+02   0.913E+01 0.677E+01 0.499E+02   -.110E+00 -.767E-01 -.501E+01   -.437E-05 -.155E-04 -.137E-04
   -.902E+01 -.670E+01 -.449E+02   0.913E+01 0.677E+01 0.499E+02   -.110E+00 -.767E-01 -.501E+01   -.437E-05 -.155E-04 -.137E-04
   -.902E+01 -.670E+01 -.449E+02   0.913E+01 0.677E+01 0.499E+02   -.110E+00 -.767E-01 -.501E+01   -.437E-05 -.155E-04 -.137E-04
   -.172E+02 -.338E+02 -.265E+02   0.186E+02 0.382E+02 0.287E+02   -.139E+01 -.433E+01 -.214E+01   -.275E-05 -.564E-05 -.193E-04
   -.172E+02 -.338E+02 -.265E+02   0.186E+02 0.382E+02 0.287E+02   -.139E+01 -.433E+01 -.214E+01   -.275E-05 -.564E-05 -.193E-04
   -.172E+02 -.338E+02 -.265E+02   0.186E+02 0.382E+02 0.287E+02   -.139E+01 -.433E+01 -.214E+01   -.275E-05 -.564E-05 -.193E-04
   -.172E+02 -.338E+02 -.265E+02   0.186E+02 0.382E+02 0.287E+02   -.139E+01 -.433E+01 -.214E+01   -.275E-05 -.564E-05 -.193E-04
   -.172E+02 -.338E+02 -.265E+02   0.186E+02 0.382E+02 0.287E+02   -.139E+01 -.433E+01 -.214E+01   -.275E-05 -.564E-05 -.193E-04
   -.172E+02 -.338E+02 -.265E+02   0.186E+02 0.382E+02 0.287E+02   -.139E+01 -.433E+01 -.214E+01   -.275E-05 -.564E-05 -.193E-04
   -.172E+02 -.338E+02 -.265E+02   0.186E+02 0.382E+02 0.287E+02   -.139E+01 -.433E+01 -.214E+01   -.275E-05 -.564E-05 -.193E-04
   -.172E+02 -.338E+02 -.265E+02   0.186E+02 0.382E+02 0.287E+02   -.139E+01 -.433E+01 -.214E+01   -.275E-05 -.564E-05 -.193E-04
   0.154E+02 0.114E+02 0.237E+02   -.158E+02 -.117E+02 -.243E+02   0.427E+00 0.319E+00 0.657E+00   0.325E-04 -.248E-04 -.125E-05
   0.154E+02 0.114E+02 0.237E+02   -.158E+02 -.117E+02 -.243E+02   0.427E+00 0.319E+00 0.657E+00   0.325E-04 -.248E-04 -.125E-05
   0.154E+02 0.114E+02 0.237E+02   -.158E+02 -.117E+02 -.243E+02   0.427E+00 0.319E+00 0.657E+00   0.325E-04 -.248E-04 -.125E-05
   0.154E+02 0.114E+02 0.237E+02   -.158E+02 -.117E+02 -.243E+02   0.427E+00 0.319E+00 0.657E+00   0.325E-04 -.248E-04 -.125E-05
   0.154E+02 0.114E+02 0.237E+02   -.158E+02 -.117E+02 -.243E+02   0.427E+00 0.319E+00 0.657E+00   0.325E-04 -.248E-04 -.125E-05
   0.154E+02 0.114E+02 0.237E+02   -.158E+02 -.117E+02 -.243E+02   0.427E+00 0.319E+00 0.657E+00   0.325E-04 -.248E-04 -.125E-05
   0.154E+02 0.114E+02 0.237E+02   -.158E+02 -.117E+02 -.243E+02   0.427E+00 0.319E+00 0.657E+00   0.325E-04 -.248E-04 -.125E-05
   0.154E+02 0.114E+02 0.237E+02   -.158E+02 -.117E+02 -.243E+02   0.427E+00 0.319E+00 0.657E+00   0.325E-04 -.248E-04 -.125E-05
   -.154E+02 -.114E+02 -.237E+02   0.158E+02 0.117E+02 0.243E+02   -.427E+00 -.319E+00 -.657E+00   -.325E-04 0.248E-04 0.125E-05
   -.154E+02 -.114E+02 -.237E+02   0.158E+02 0.117E+02 0.243E+02   -.427E+00 -.319E+00 -.657E+00   -.325E-04 0.248E-04 0.125E-05
   -.154E+02 -.114E+02 -.237E+02   0.158E+02 0.117E+02 0.243E+02   -.427E+00 -.319E+00 -.657E+00   -.325E-04 0.248E-04 0.125E-05
   -.154E+02 -.114E+02 -.237E+02   0.158E+02 0.117E+02 0.243E+02   -.427E+00 -.319E+00 -.657E+00   -.325E-04 0.248E-04 0.125E-05
   -.154E+02 -.114E+02 -.237E+02   0.158E+02 0.117E+02 0.243E+02   -.427E+00 -.319E+00 -.657E+00   -.325E-04 0.248E-04 0.125E-05
   -.154E+02 -.114E+02 -.237E+02   0.158E+02 0.117E+02 0.243E+02   -.427E+00 -.319E+00 -.657E+00   -.325E-04 0.248E-04 0.125E-05
   -.154E+02 -.114E+02 -.237E+02   0.158E+02 0.117E+02 0.243E+02   -.427E+00 -.319E+00 -.657E+00   -.325E-04 0.248E-04 0.125E-05
   -.154E+02 -.114E+02 -.237E+02   0.158E+02 0.117E+02 0.243E+02   -.427E+00 -.319E+00 -.657E+00   -.325E-04 0.248E-04 0.125E-05
 -----------------------------------------------------------------------------------------------
   0.650E-12 0.116E-10 -.898E-11   0.746E-13 0.199E-12 -.160E-12   -.153E-13 -.277E-13 -.289E-13   -.350E-11 -.663E-11 0.123E-12
 
 
 POSITION                                       TOTAL-FORCE (eV/Angst)
 -----------------------------------------------------------------------------------
      2.69792      3.66688      6.60790         0.001809     -0.003002      0.001453
      2.75919      3.71130     11.81283         0.001809     -0.003002      0.001453
      4.11040      8.18197      8.78155         0.001809     -0.003002      0.001453
      4.17167      8.22638     13.98647         0.001809     -0.003002      0.001453
      7.43052      3.71183      8.78258         0.001809     -0.003002      0.001453
      7.49179      3.75625     13.98750         0.001809     -0.003002      0.001453
      8.84300      8.22692     10.95623         0.001809     -0.003002      0.001453
      8.90427      8.27133     16.16115         0.001809     -0.003002      0.001453
      4.94265      3.66741      5.15305        -0.002084     -0.003521      0.000073
      5.00392      3.71182     10.35798        -0.002084     -0.003521      0.000073
      6.35512      8.18250      7.32670        -0.002084     -0.003521      0.000073
      6.41639      8.22691     12.53163        -0.002084     -0.003521      0.000073
      9.67525      3.71236      7.32773        -0.002084     -0.003521      0.000073
      9.73652      3.75677     12.53265        -0.002084     -0.003521      0.000073
     11.08772      8.22745      9.50138        -0.002084     -0.003521      0.000073
     11.14899      8.27186     14.70630        -0.002084     -0.003521      0.000073
      4.29346      1.51963      6.60894        -0.000820     -0.002280      0.001106
      4.35473      1.56404     11.81387        -0.000820     -0.002280      0.001106
      5.70593      6.03471      8.78259        -0.000820     -0.002280      0.001106
      5.76720      6.07912     13.98751        -0.000820     -0.002280      0.001106
      9.02606      1.56458      8.78362        -0.000820     -0.002280      0.001106
      9.08733      1.60899     13.98854        -0.000820     -0.002280      0.001106
     10.43853      6.07966     10.95727        -0.000820     -0.002280      0.001106
     10.49980      6.12407     16.16219        -0.000820     -0.002280      0.001106
      3.50842      0.93757      2.94535        -0.001809      0.003002     -0.001453
      3.56969      0.98198      8.15027        -0.001809      0.003002     -0.001453
      4.92089      5.45265      5.11899        -0.001809      0.003002     -0.001453
      4.98216      5.49706     10.32392        -0.001809      0.003002     -0.001453
      8.24102      0.98252      5.12002        -0.001809      0.003002     -0.001453
      8.30229      1.02693     10.32495        -0.001809      0.003002     -0.001453
      9.65349      5.49760      7.29367        -0.001809      0.003002     -0.001453
      9.71476      5.54201     12.49859        -0.001809      0.003002     -0.001453
      1.26370      0.93704      4.40019         0.002084      0.003521     -0.000073
      1.32497      0.98145      9.60512         0.002084      0.003521     -0.000073
      2.67617      5.45212      6.57384         0.002084      0.003521     -0.000073
      2.73744      5.49654     11.77877         0.002084      0.003521     -0.000073
      5.99629      0.98199      6.57487         0.002084      0.003521     -0.000073
      6.05757      1.02640     11.77979         0.002084      0.003521     -0.000073
      7.40877      5.49707      8.74852         0.002084      0.003521     -0.000073
      7.47004      5.54149     13.95344         0.002084      0.003521     -0.000073
      1.91289      3.08482      2.94431         0.000820      0.002280     -0.001106
      1.97416      3.12924      8.14923         0.000820      0.002280     -0.001106
      3.32536      7.59991      5.11795         0.000820      0.002280     -0.001106
      3.38663      7.64432     10.32288         0.000820      0.002280     -0.001106
      6.64549      3.12977      5.11898         0.000820      0.002280     -0.001106
      6.70676      3.17419     10.32391         0.000820      0.002280     -0.001106
      8.05796      7.64486      7.29263         0.000820      0.002280     -0.001106
      8.11923      7.68927     12.49755         0.000820      0.002280     -0.001106
      3.14346      0.03437      1.45115         0.000655     -0.001554     -0.002278
      3.20473      0.07879      6.65608         0.000655     -0.001554     -0.002278
      4.55594      4.54946      3.62480         0.000655     -0.001554     -0.002278
      4.61721      4.59387      8.82973         0.000655     -0.001554     -0.002278
      7.87606      0.07932      3.62583         0.000655     -0.001554     -0.002278
      7.93733      0.12374      8.83075         0.000655     -0.001554     -0.002278
      9.28854      4.59441      5.79948         0.000655     -0.001554     -0.002278
      9.34981      4.63882     11.00440         0.000655     -0.001554     -0.002278
      0.04558      0.03327      3.46082         0.002036     -0.000428     -0.000751
      0.10685      0.07768      8.66575         0.002036     -0.000428     -0.000751
      1.45805      4.54835      5.63447         0.002036     -0.000428     -0.000751
      1.51932      4.59276     10.83940         0.002036     -0.000428     -0.000751
      4.77817      0.07822      5.63550         0.002036     -0.000428     -0.000751
      4.83944      0.12263     10.84042         0.002036     -0.000428     -0.000751
      6.19065      4.59330      7.80915         0.002036     -0.000428     -0.000751
      6.25192      4.63771     13.01407         0.002036     -0.000428     -0.000751
      0.94209      2.99877      1.45003         0.001241     -0.000096     -0.001134
      1.00336      3.04318      6.65495         0.001241     -0.000096     -0.001134
      2.35456      7.51385      3.62367         0.001241     -0.000096     -0.001134
      2.41583      7.55826      8.82860         0.001241     -0.000096     -0.001134
      5.67468      3.04372      3.62470         0.001241     -0.000096     -0.001134
      5.73595      3.08813      8.82963         0.001241     -0.000096     -0.001134
      7.08716      7.55880      5.79835         0.001241     -0.000096     -0.001134
      7.14843      7.60321     11.00327         0.001241     -0.000096     -0.001134
      4.53662      9.12957     15.48067        -0.000655      0.001554      0.002278
      4.47535      9.08516     10.27574        -0.000655      0.001554      0.002278
      3.12415      4.61449     13.30702        -0.000655      0.001554      0.002278
      3.06288      4.57008      8.10209        -0.000655      0.001554      0.002278
      9.26922      9.17452     17.65534        -0.000655      0.001554      0.002278
      9.20795      9.13011     12.45042        -0.000655      0.001554      0.002278
      7.85675      4.65944     15.48169        -0.000655      0.001554      0.002278
      7.79548      4.61503     10.27677        -0.000655      0.001554      0.002278
     12.30584      9.13122     10.44075        -0.002036      0.000428      0.000751
     12.36711      9.17563     15.64567        -0.002036      0.000428      0.000751
     10.89337      4.61613      8.26710        -0.002036      0.000428      0.000751
     10.95464      4.66055     13.47202        -0.002036      0.000428      0.000751
      7.57324      9.08627      8.26607        -0.002036      0.000428      0.000751
      7.63451      9.13068     13.47100        -0.002036      0.000428      0.000751
      6.16077      4.57118      6.09242        -0.002036      0.000428      0.000751
      6.22204      4.61560     11.29735        -0.002036      0.000428      0.000751
     10.05813      1.69505     15.48282        -0.001241      0.000096      0.001134
      9.99686      1.65063     10.27790        -0.001241      0.000096      0.001134
     11.47060      6.21013     17.65647        -0.001241      0.000096      0.001134
     11.40933      6.16572     12.45155        -0.001241      0.000096      0.001134
      5.32553      1.65010     13.30815        -0.001241      0.000096      0.001134
      5.26426      1.60568      8.10322        -0.001241      0.000096      0.001134
      6.73800      6.16518     15.48179        -0.001241      0.000096      0.001134
      6.67673      6.12077     10.27687        -0.001241      0.000096      0.001134
      3.91733      2.90622      6.02993        -0.002089      0.003638     -0.003421
      3.97860      2.95063     11.23485        -0.002089      0.003638     -0.003421
      5.32980      7.42130      8.20357        -0.002089      0.003638     -0.003421
      5.39107      7.46571     13.40850        -0.002089      0.003638     -0.003421
      8.64993      2.95117      8.20460        -0.002089      0.003638     -0.003421
      8.71120      2.99558     13.40953        -0.002089      0.003638     -0.003421
     10.06240      7.46625     10.37825        -0.002089      0.003638     -0.003421
     10.12367      7.51067     15.58317        -0.002089      0.003638     -0.003421
      2.28901      1.69823      3.52332         0.002089     -0.003638      0.003421
      2.35028      1.74264      8.72825         0.002089     -0.003638      0.003421
      3.70149      6.21332      5.69697         0.002089     -0.003638      0.003421
      3.76276      6.25773     10.90190         0.002089     -0.003638      0.003421
      7.02161      1.74318      5.69800         0.002089     -0.003638      0.003421
      7.08288      1.78760     10.90292         0.002089     -0.003638      0.003421
      8.43409      6.25827      7.87165         0.002089     -0.003638      0.003421
      8.49536      6.30268     13.07657         0.002089     -0.003638      0.003421
 -----------------------------------------------------------------------------------
    total drift:                               -0.000000      0.000000     -0.000000


--------------------------------------------------------------------------------------------------------



  FREE ENERGIE OF THE ION-ELECTRON SYSTEM (eV)
  ---------------------------------------------------
  free  energy   TOTEN  =      -793.99941215 eV

  energy  without entropy=     -793.99941215  energy(sigma->0) =     -793.99941215
 
 d Force = 0.5357591E-09[ 0.444E-09, 0.627E-09]  d Energy = 0.7080644E-07-0.703E-07
 d Force = 0.3890222E-03[ 0.389E-03, 0.389E-03]  d Ewald  = 0.4973322E-03-0.108E-03


--------------------------------------------------------------------------------------------------------


    POTLOK:  cpu time    0.2652: real time    0.3051


--------------------------------------------------------------------------------------------------------




--------------------------------------------------------------------------------------------------------


  
 reached required accuracy - stopping structural energy minimisation
     LOOP+:  cpu time   23.5962: real time   23.6446
 -----------------------------------------------------------------------------
|                                                                             |
|           W    W    AA    RRRRR   N    N  II  N    N   GGGG   !!!           |
|           W    W   A  A   R    R  NN   N  II  NN   N  G    G  !!!           |
|           W    W  A    A  R    R  N N  N  II  N N  N  G       !!!           |
|           W WW W  AAAAAA  RRRRR   N  N N  II  N  N N  G  GGG   !            |
|           WW  WW  A    A  R   R   N   NN  II  N   NN  G    G                |
|           W    W  A    A  R    R  N    N  II  N    N   GGGG   !!!           |
|                                                                             |
|     Tetrahedron method does not include variations of the Fermi             |
|     occupations, so forces and stress will be inaccurate. We suggest        |
|     using a different smearing scheme ISMEAR = 1 or 2 for metals in         |
|     relaxations.                                                            |
|                                                                             |
 -----------------------------------------------------------------------------

    4ORBIT:  cpu time    0.0000: real time    0.0000
 BZINTS: Fermi energy:    3.963820;  352.000000 electrons
         Band energy:-0.536598E+03;  BLOECHL correction:   -0.101939

 total amount of memory used by VASP MPI-rank0  1769317. kBytes
=======================================================================

   base      :      30000. kBytes
   nonlr-proj:      48302. kBytes
   fftplans  :     200616. kBytes
   grid      :     358473. kBytes
   one-center:        344. kBytes
   wavefun   :    1131582. kBytes
 
  
  
 General timing and accounting informations for this job:
 ========================================================
  
                  Total CPU time used (sec):     1518.792
                            User time (sec):     1239.676
                          System time (sec):      279.115
                         Elapsed time (sec):     1519.112
  
                   Maximum memory used (kb):     3794524.
                   Average memory used (kb):          N/A
  
                          Minor page faults:     21216579
                          Major page faults:            0
                 Voluntary context switches:       302864
