<?xml version="1.0" encoding="ISO-8859-1"?>
<modeling>
 <generator>
  <i name="program" type="string">vasp </i>
  <i name="version" type="string">6.2.0  </i>
  <i name="subversion" type="string">18Jan21 (build Feb 25 2021 07:51:20) complex                          parallel </i>
  <i name="platform" type="string">LinuxPGI </i>
  <i name="date" type="string">2022 05 18 </i>
  <i name="time" type="string">06:43:48 </i>
 </generator>
 <incar>
  <i type="string" name="PREC">Accurate</i>
  <i type="string" name="ALGO">Fast</i>
  <i type="int" name="IBRION">     2</i>
  <i name="EDIFF">      0.00000100</i>
  <i type="int" name="NSW">   300</i>
  <i type="int" name="ISIF">     4</i>
  <i name="ENCUT">    700.00000000</i>
  <i type="string" name="LREAL">Auto</i>
  <i type="int" name="ISMEAR">    -5</i>
  <i name="SIGMA">      0.05000000</i>
  <i type="logical" name="LWAVE"> F  </i>
 </incar>
 <primitive_cell>
  <structure name="primitive_cell" >
   <crystal>
    <varray name="basis" >
     <v>      -4.75937350      -0.03628550      -2.15348800 </v>
     <v>      -3.34747350       4.46420750       0.00000050 </v>
     <v>      -0.04935800      -0.03628550      -5.18098550 </v>
    </varray>
    <i name="volume">    109.97274790 </i>
    <varray name="rec_basis" >
     <v>      -0.21031569      -0.15770463       0.00310813 </v>
     <v>      -0.00099892       0.22325489      -0.00155407 </v>
     <v>       0.08741818       0.06555030      -0.19430537 </v>
    </varray>
   </crystal>
   <varray name="positions" >
    <v>       0.87818000       0.80103000       0.19897000 </v>
    <v>       0.39794000       0.80103000       0.67921000 </v>
    <v>       0.87818000       0.32079000       0.19897000 </v>
    <v>       0.12182000       0.19897000       0.80103000 </v>
    <v>       0.60206000       0.19897000       0.32079000 </v>
    <v>       0.12182000       0.67921000       0.80103000 </v>
    <v>       0.33518400       0.00023000       0.99977000 </v>
    <v>       0.99954000       0.00023000       0.33541400 </v>
    <v>       0.33518400       0.66458600       0.99977000 </v>
    <v>       0.66481600       0.99977000       0.00023000 </v>
    <v>       0.00046000       0.99977000       0.66458600 </v>
    <v>       0.66481600       0.33541400       0.00023000 </v>
    <v>       0.73841200       0.63079400       0.36920600 </v>
    <v>       0.26158800       0.36920600       0.63079400 </v>
   </varray>
  </structure>
  <varray name="primitive_index" >
   <v type="int" >        1 </v>
   <v type="int" >        9 </v>
   <v type="int" >       17 </v>
   <v type="int" >       28 </v>
   <v type="int" >       35 </v>
   <v type="int" >       42 </v>
   <v type="int" >       52 </v>
   <v type="int" >       59 </v>
   <v type="int" >       66 </v>
   <v type="int" >       76 </v>
   <v type="int" >       83 </v>
   <v type="int" >       90 </v>
   <v type="int" >       97 </v>
   <v type="int" >      105 </v>
  </varray>
 </primitive_cell>
 <kpoints>
  <generation param="Gamma">
   <v type="int" name="divisions">       2        2        2 </v>
   <v name="usershift">      0.00000000       0.00000000       0.00000000 </v>
   <v name="genvec1">      0.50000000      -0.00000000      -0.00000000 </v>
   <v name="genvec2">     -0.00000000       0.50000000       0.00000000 </v>
   <v name="genvec3">      0.00000000       0.00000000       0.50000000 </v>
   <v name="shift">      0.00000000       0.00000000       0.00000000 </v>
  </generation>
  <varray name="kpointlist" >
   <v>       0.00000000       0.00000000       0.00000000 </v>
   <v>       0.50000000       0.00000000       0.00000000 </v>
   <v>       0.00000000       0.50000000       0.00000000 </v>
   <v>       0.50000000       0.50000000       0.00000000 </v>
   <v>       0.00000000       0.00000000       0.50000000 </v>
   <v>       0.50000000       0.00000000       0.50000000 </v>
   <v>       0.00000000       0.50000000       0.50000000 </v>
   <v>       0.50000000       0.50000000       0.50000000 </v>
  </varray>
  <varray name="weights" >
   <v>       0.12500000 </v>
   <v>       0.12500000 </v>
   <v>       0.12500000 </v>
   <v>       0.12500000 </v>
   <v>       0.12500000 </v>
   <v>       0.12500000 </v>
   <v>       0.12500000 </v>
   <v>       0.12500000 </v>
  </varray>
  <varray name="tetrahedronlist"  type="int" >
   <v type="int" >        2        1        3        4        8 </v>
   <v type="int" >        2        1        2        4        8 </v>
   <v type="int" >        2        1        2        6        8 </v>
   <v type="int" >        2        1        3        7        8 </v>
   <v type="int" >        2        1        5        7        8 </v>
   <v type="int" >        2        1        5        6        8 </v>
   <v type="int" >        2        2        3        4        7 </v>
   <v type="int" >        2        1        2        3        7 </v>
   <v type="int" >        2        1        2        5        7 </v>
   <v type="int" >        2        2        4        7        8 </v>
   <v type="int" >        2        2        6        7        8 </v>
   <v type="int" >        2        2        5        6        7 </v>
   <v type="int" >        2        1        2        3        6 </v>
   <v type="int" >        2        2        3        4        6 </v>
   <v type="int" >        2        3        4        6        8 </v>
   <v type="int" >        2        1        3        5        6 </v>
   <v type="int" >        2        3        5        6        7 </v>
   <v type="int" >        2        3        6        7        8 </v>
   <v type="int" >        2        1        2        4        5 </v>
   <v type="int" >        2        1        3        4        5 </v>
   <v type="int" >        2        3        4        5        7 </v>
   <v type="int" >        2        2        4        5        6 </v>
   <v type="int" >        2        4        5        6        8 </v>
   <v type="int" >        2        4        5        7        8 </v>
  </varray>
  <i name="volumeweight">      0.02083333 </i>
 </kpoints>
 <parameters>
  <separator name="general" >
   <i type="string" name="SYSTEM">unknown system</i>
   <i type="logical" name="LCOMPAT"> F  </i>
  </separator>
  <separator name="electronic" >
   <i type="string" name="PREC">accura</i>
   <i name="ENMAX">    700.00000000</i>
   <i name="ENAUG">    644.87300000</i>
   <i name="EDIFF">      0.00000100</i>
   <i type="int" name="IALGO">    68</i>
   <i type="int" name="IWAVPR">    11</i>
   <i type="int" name="NBANDS">   233</i>
   <i type="int" name="NBANDSLOW">    -1</i>
   <i type="int" name="NBANDSHIGH">    -1</i>
   <i name="NELECT">    352.00000000</i>
   <i type="int" name="TURBO">     0</i>
   <i type="int" name="IRESTART">     0</i>
   <i type="int" name="NREBOOT">     0</i>
   <i type="int" name="NMIN">     0</i>
   <i name="EREF">      0.00000000</i>
   <separator name="electronic smearing" >
    <i type="int" name="ISMEAR">    -5</i>
    <i name="SIGMA">      0.05000000</i>
    <i name="KSPACING">      0.50000000</i>
    <i type="logical" name="KGAMMA"> T  </i>
    <i type="logical" name="KBLOWUP"> T  </i>
   </separator>
   <separator name="electronic projectors" >
    <i type="logical" name="LREAL"> T  </i>
    <v name="ROPT">     -0.00025000     -0.00025000</v>
    <i type="int" name="LMAXPAW">  -100</i>
    <i type="int" name="LMAXMIX">     2</i>
    <i type="logical" name="NLSPLINE"> F  </i>
   </separator>
   <separator name="electronic startup" >
    <i type="int" name="ISTART">     0</i>
    <i type="int" name="ICHARG">     2</i>
    <i type="int" name="INIWAV">     1</i>
   </separator>
   <separator name="electronic spin" >
    <i type="int" name="ISPIN">     1</i>
    <i type="logical" name="LNONCOLLINEAR"> F  </i>
    <v name="MAGMOM">      1.00000000      1.00000000      1.00000000      1.00000000      1.00000000      1.00000000      1.00000000      1.00000000      1.00000000      1.00000000      1.00000000      1.00000000      1.00000000      1.00000000      1.00000000      1.00000000      1.00000000      1.00000000      1.00000000      1.00000000
      1.00000000      1.00000000      1.00000000      1.00000000      1.00000000      1.00000000      1.00000000      1.00000000      1.00000000      1.00000000      1.00000000      1.00000000      1.00000000      1.00000000      1.00000000      1.00000000      1.00000000      1.00000000      1.00000000      1.00000000
      1.00000000      1.00000000      1.00000000      1.00000000      1.00000000      1.00000000      1.00000000      1.00000000      1.00000000      1.00000000      1.00000000      1.00000000      1.00000000      1.00000000      1.00000000      1.00000000      1.00000000      1.00000000      1.00000000      1.00000000
      1.00000000      1.00000000      1.00000000      1.00000000      1.00000000      1.00000000      1.00000000      1.00000000      1.00000000      1.00000000      1.00000000      1.00000000      1.00000000      1.00000000      1.00000000      1.00000000      1.00000000      1.00000000      1.00000000      1.00000000
      1.00000000      1.00000000      1.00000000      1.00000000      1.00000000      1.00000000      1.00000000      1.00000000      1.00000000      1.00000000      1.00000000      1.00000000      1.00000000      1.00000000      1.00000000      1.00000000      1.00000000      1.00000000      1.00000000      1.00000000
      1.00000000      1.00000000      1.00000000      1.00000000      1.00000000      1.00000000      1.00000000      1.00000000      1.00000000      1.00000000      1.00000000      1.00000000</v>
    <i name="NUPDOWN">     -1.00000000</i>
    <i type="logical" name="LSORBIT"> F  </i>
    <v name="SAXIS">      0.00000000      0.00000000      1.00000000</v>
    <i type="logical" name="LSPIRAL"> F  </i>
    <v name="QSPIRAL">      0.00000000      0.00000000      0.00000000</v>
    <i type="logical" name="LZEROZ"> F  </i>
   </separator>
   <separator name="electronic exchange-correlation" >
    <i type="logical" name="LASPH"> F  </i>
    <i type="logical" name="LMETAGGA"> F  </i>
   </separator>
   <separator name="electronic convergence" >
    <i type="int" name="NELM">    60</i>
    <i type="int" name="NELMDL">    -5</i>
    <i type="int" name="NELMIN">     2</i>
    <i name="ENINI">    700.00000000</i>
    <separator name="electronic convergence detail" >
     <i type="logical" name="LDIAG"> T  </i>
     <i type="logical" name="LSUBROT"> F  </i>
     <i name="WEIMIN">      0.00100000</i>
     <i name="EBREAK">      0.00000000</i>
     <i name="DEPER">      0.30000000</i>
     <i type="int" name="NRMM">     4</i>
     <i name="TIME">      0.40000000</i>
    </separator>
   </separator>
   <separator name="electronic mixer" >
    <i name="AMIX">      0.40000000</i>
    <i name="BMIX">      1.00000000</i>
    <i name="AMIN">      0.10000000</i>
    <i name="AMIX_MAG">      1.60000000</i>
    <i name="BMIX_MAG">      1.00000000</i>
    <separator name="electronic mixer details" >
     <i type="int" name="IMIX">     4</i>
     <i type="logical" name="MIXFIRST"> F  </i>
     <i type="int" name="MAXMIX">   -45</i>
     <i name="WC">    100.00000000</i>
     <i type="int" name="INIMIX">     1</i>
     <i type="int" name="MIXPRE">     1</i>
     <i type="int" name="MREMOVE">     5</i>
    </separator>
   </separator>
   <separator name="electronic dipolcorrection" >
    <i type="logical" name="LDIPOL"> F  </i>
    <i type="logical" name="LMONO"> F  </i>
    <i type="int" name="IDIPOL">     0</i>
    <i name="EPSILON">      1.00000000</i>
    <v name="DIPOL">   -100.00000000   -100.00000000   -100.00000000</v>
    <i name="EFIELD">      0.00000000</i>
   </separator>
  </separator>
  <separator name="grids" >
   <i type="int" name="NGX">    90</i>
   <i type="int" name="NGY">    90</i>
   <i type="int" name="NGZ">    90</i>
   <i type="int" name="NGXF">   180</i>
   <i type="int" name="NGYF">   180</i>
   <i type="int" name="NGZF">   180</i>
   <i type="logical" name="ADDGRID"> F  </i>
  </separator>
  <separator name="ionic" >
   <i type="int" name="NSW">   300</i>
   <i type="int" name="IBRION">     2</i>
   <i type="int" name="MDALGO">     0</i>
   <i type="int" name="ISIF">     4</i>
   <i name="PSTRESS">      0.00000000</i>
   <i name="EDIFFG">      0.00001000</i>
   <i type="int" name="NFREE">     1</i>
   <i name="POTIM">      0.50000000</i>
   <i name="SMASS">     -3.00000000</i>
   <i name="SCALEE">      1.00000000</i>
  </separator>
  <separator name="ionic md" >
   <i name="TEBEG">      0.00010000</i>
   <i name="TEEND">      0.00010000</i>
   <i type="int" name="NBLOCK">     1</i>
   <i type="int" name="KBLOCK">   300</i>
   <i type="int" name="NPACO">   256</i>
   <i name="APACO">     16.00000000</i>
  </separator>
  <separator name="symmetry" >
   <i type="int" name="ISYM">     2</i>
   <i name="SYMPREC">      0.00001000</i>
  </separator>
  <separator name="dos" >
   <i type="int" name="LORBIT">     0</i>
   <v name="RWIGS">     -1.00000000     -1.00000000</v>
   <i type="int" name="NEDOS">   301</i>
   <i name="EMIN">     10.00000000</i>
   <i name="EMAX">    -10.00000000</i>
   <i name="EFERMI">      0.00000000</i>
  </separator>
  <separator name="writing" >
   <i type="int" name="NWRITE">     2</i>
   <i type="logical" name="LWAVE"> F  </i>
   <i type="logical" name="LDOWNSAMPLE"> F  </i>
   <i type="logical" name="LCHARG"> T  </i>
   <i type="logical" name="LPARD"> F  </i>
   <i type="logical" name="LVTOT"> F  </i>
   <i type="logical" name="LVHAR"> F  </i>
   <i type="logical" name="LELF"> F  </i>
   <i type="logical" name="LOPTICS"> F  </i>
   <v name="STM">      0.00000000      0.00000000      0.00000000      0.00000000      0.00000000      0.00000000      0.00000000</v>
  </separator>
  <separator name="performance" >
   <i type="int" name="NPAR">     1</i>
   <i type="int" name="NSIM">     4</i>
   <i type="int" name="NBLK">    -1</i>
   <i type="logical" name="LPLANE"> T  </i>
   <i type="logical" name="LSCALAPACK"> T  </i>
   <i type="logical" name="LSCAAWARE"> F  </i>
   <i type="logical" name="LSCALU"> F  </i>
   <i type="logical" name="LASYNC"> F  </i>
   <i type="logical" name="LORBITALREAL"> F  </i>
  </separator>
  <separator name="miscellaneous" >
   <i type="int" name="IDIOT">     3</i>
   <i type="int" name="PHON_NSTRUCT">    -1</i>
   <i type="logical" name="LMUSIC"> F  </i>
   <v name="POMASS">     10.81100000     12.01100000</v>
   <v name="DARWINR">      0.00000000      0.00000000</v>
   <v name="DARWINV">      1.00000000      1.00000000</v>
   <i type="logical" name="LCORR"> T  </i>
  </separator>
  <i type="logical" name="GGA_COMPAT"> T  </i>
  <i type="logical" name="LBERRY"> F  </i>
  <i type="int" name="ICORELEVEL">     0</i>
  <i type="logical" name="LDAU"> F  </i>
  <i type="int" name="I_CONSTRAINED_M">     0</i>
  <separator name="electronic exchange-correlation" >
   <i type="string" name="GGA">--</i>
   <i type="int" name="VOSKOWN">     0</i>
   <i type="logical" name="LHFCALC"> F  </i>
   <i type="string" name="PRECFOCK"></i>
   <i type="logical" name="LSYMGRAD"> F  </i>
   <i type="logical" name="LHFONE"> F  </i>
   <i type="logical" name="LRHFCALC"> F  </i>
   <i type="logical" name="LTHOMAS"> F  </i>
   <i type="logical" name="LMODELHF"> F  </i>
   <i type="logical" name="LFOCKACE"> F  </i>
   <i name="ENCUT4O">     -1.00000000</i>
   <i type="int" name="EXXOEP">     0</i>
   <i type="int" name="FOURORBIT">     0</i>
   <i name="AEXX">      0.00000000</i>
   <i name="HFALPHA">      0.00000000</i>
   <i name="MCALPHA">      0.00000000</i>
   <i name="ALDAX">      1.00000000</i>
   <i name="AGGAX">      1.00000000</i>
   <i name="ALDAC">      1.00000000</i>
   <i name="AGGAC">      1.00000000</i>
   <i type="int" name="NKREDX">     1</i>
   <i type="int" name="NKREDY">     1</i>
   <i type="int" name="NKREDZ">     1</i>
   <i type="logical" name="SHIFTRED"> F  </i>
   <i type="logical" name="ODDONLY"> F  </i>
   <i type="logical" name="EVENONLY"> F  </i>
   <i type="int" name="LMAXFOCK">     0</i>
   <i type="int" name="NMAXFOCKAE">     0</i>
   <i type="logical" name="LFOCKAEDFT"> F  </i>
   <i name="HFSCREEN">      0.00000000</i>
   <i name="HFSCREENC">      0.00000000</i>
   <i type="int" name="NBANDSGWLOW">     0</i>
  </separator>
  <separator name="vdW DFT" >
   <i type="logical" name="LUSE_VDW"> F  </i>
   <i name="Zab_VDW">     -0.84910000</i>
   <i name="PARAM1">      0.12340000</i>
   <i name="PARAM2">      1.00000000</i>
   <i name="PARAM3">      0.00000000</i>
  </separator>
  <separator name="model GW" >
   <i type="int" name="MODEL_GW">     0</i>
   <i name="MODEL_EPS0">      4.71311777</i>
   <i name="MODEL_ALPHA">      1.00000000</i>
  </separator>
  <separator name="linear response parameters" >
   <i type="logical" name="LEPSILON"> F  </i>
   <i type="logical" name="LRPA"> F  </i>
   <i type="logical" name="LNABLA"> F  </i>
   <i type="logical" name="LVEL"> F  </i>
   <i type="int" name="KINTER">     0</i>
   <i name="CSHIFT">      0.10000000</i>
   <i name="OMEGAMAX">     -1.00000000</i>
   <i name="DEG_THRESHOLD">      0.00200000</i>
   <i name="RTIME">     -0.10000000</i>
   <i name="WPLASMAI">      0.00000000</i>
   <v name="DFIELD">      0.00000000      0.00000000      0.00000000</v>
   <v name="WPLASMA">      0.00000000      0.00000000      0.00000000      0.00000000      0.00000000      0.00000000      0.00000000      0.00000000      0.00000000</v>
  </separator>
  <separator name="orbital magnetization" >
   <i type="logical" name="NUCIND"> F  </i>
   <v name="MAGPOS">      0.00000000      0.00000000      0.00000000</v>
   <i type="logical" name="LNICSALL"> T  </i>
   <i type="logical" name="ORBITALMAG"> F  </i>
   <i type="logical" name="LMAGBLOCH"> F  </i>
   <i type="logical" name="LCHIMAG"> F  </i>
   <i type="logical" name="LGAUGE"> T  </i>
   <i type="int" name="MAGATOM">     0</i>
   <v name="MAGDIPOL">      0.00000000      0.00000000      0.00000000</v>
   <v name="AVECCONST">      0.00000000      0.00000000      0.00000000</v>
  </separator>
  <separator name="response functions" >
   <i type="logical" name="LFINITE_TEMPERATURE"> F  </i>
   <i type="logical" name="LADDER"> F  </i>
   <i type="logical" name="LRPAFORCE"> F  </i>
   <i type="logical" name="LFXC"> F  </i>
   <i type="logical" name="LHARTREE"> T  </i>
   <i type="int" name="IBSE">     0</i>
   <v type="int" name="KPOINT">    -1     0     0     0</v>
   <i type="logical" name="LTCTC"> F  </i>
   <i type="logical" name="LTCTE"> F  </i>
   <i type="logical" name="LTETE"> F  </i>
   <i type="logical" name="LTRIPLET"> F  </i>
   <i type="logical" name="LFXCEPS"> F  </i>
   <i type="logical" name="LFXHEG"> F  </i>
   <i type="int" name="NATURALO">     2</i>
   <i type="logical" name="LHOLEGF"> F  </i>
   <i type="logical" name="L2ORDER"> F  </i>
   <i type="logical" name="LDMP1"> F  </i>
   <i type="logical" name="LMP2LT"> F  </i>
   <i type="logical" name="LSMP2LT"> F  </i>
   <i type="logical" name="LGWLF"> F  </i>
   <i name="ENCUTGW">     -2.00000000</i>
   <i name="ENCUTGWSOFT">     -2.00000000</i>
   <i name="ENCUTLF">     -1.00000000</i>
   <i type="logical" name="LESF_SPLINES"> F  </i>
   <i type="int" name="LMAXMP2">    -1</i>
   <i name="SCISSOR">      0.00000000</i>
   <i type="int" name="NOMEGA">     0</i>
   <i type="int" name="NOMEGAR">     0</i>
   <i type="int" name="NBANDSGW">    -1</i>
   <i type="int" name="NBANDSO">    -1</i>
   <i type="int" name="NBANDSV">    -1</i>
   <i type="int" name="NELM">     1</i>
   <i type="int" name="NELMHF">     1</i>
   <i type="int" name="DIM">     3</i>
   <i type="int" name="IESPILON">     4</i>
   <i type="int" name="ANTIRES">     0</i>
   <i name="OMEGAMAX">    -30.00000000</i>
   <i name="OMEGAMIN">    -30.00000000</i>
   <i name="OMEGATL">   -200.00000000</i>
   <i type="int" name="OMEGAGRID">     0</i>
   <i name="CSHIFT">     -0.10000000</i>
   <i type="logical" name="LSELFENERGY"> F  </i>
   <i type="logical" name="LSPECTRAL"> F  </i>
   <i type="logical" name="LSPECTRALGW"> F  </i>
   <i type="logical" name="LSINGLES"> F  </i>
   <i type="logical" name="LFERMIGW"> F  </i>
   <i type="logical" name="ODDONLYGW"> F  </i>
   <i type="logical" name="EVENONLYGW"> F  </i>
   <i type="int" name="NKREDLFX">     1</i>
   <i type="int" name="NKREDLFY">     1</i>
   <i type="int" name="NKREDLFZ">     1</i>
   <i type="int" name="MAXMEM">  2800</i>
   <i type="int" name="TELESCOPE">     0</i>
   <i type="int" name="NTAUPAR">    -1</i>
   <i type="int" name="NOMEGAPAR">    -1</i>
   <i name="DAMP_NEWTON">      0.80000001</i>
   <i name="LAMBDA">      1.00000000</i>
  </separator>
  <separator name="External order field" >
   <i name="OFIELD_KAPPA">      0.00000000</i>
   <v name="OFIELD_K">      0.00000000      0.00000000      0.00000000</v>
   <i name="OFIELD_Q6_NEAR">      0.00000000</i>
   <i name="OFIELD_Q6_FAR">      0.00000000</i>
   <i name="OFIELD_A">      0.00000000</i>
  </separator>
 </parameters>
 <atominfo>
  <atoms>     112 </atoms>
  <types>       2 </types>
  <array name="atoms" >
   <dimension dim="1">ion</dimension>
   <field type="string">element</field>
   <field type="int">atomtype</field>
   <set>
    <rc><c>B </c><c>   1</c></rc>
    <rc><c>B </c><c>   1</c></rc>
    <rc><c>B </c><c>   1</c></rc>
    <rc><c>B </c><c>   1</c></rc>
    <rc><c>B </c><c>   1</c></rc>
    <rc><c>B </c><c>   1</c></rc>
    <rc><c>B </c><c>   1</c></rc>
    <rc><c>B </c><c>   1</c></rc>
    <rc><c>B </c><c>   1</c></rc>
    <rc><c>B </c><c>   1</c></rc>
    <rc><c>B </c><c>   1</c></rc>
    <rc><c>B </c><c>   1</c></rc>
    <rc><c>B </c><c>   1</c></rc>
    <rc><c>B </c><c>   1</c></rc>
    <rc><c>B </c><c>   1</c></rc>
    <rc><c>B </c><c>   1</c></rc>
    <rc><c>B </c><c>   1</c></rc>
    <rc><c>B </c><c>   1</c></rc>
    <rc><c>B </c><c>   1</c></rc>
    <rc><c>B </c><c>   1</c></rc>
    <rc><c>B </c><c>   1</c></rc>
    <rc><c>B </c><c>   1</c></rc>
    <rc><c>B </c><c>   1</c></rc>
    <rc><c>B </c><c>   1</c></rc>
    <rc><c>B </c><c>   1</c></rc>
    <rc><c>B </c><c>   1</c></rc>
    <rc><c>B </c><c>   1</c></rc>
    <rc><c>B </c><c>   1</c></rc>
    <rc><c>B </c><c>   1</c></rc>
    <rc><c>B </c><c>   1</c></rc>
    <rc><c>B </c><c>   1</c></rc>
    <rc><c>B </c><c>   1</c></rc>
    <rc><c>B </c><c>   1</c></rc>
    <rc><c>B </c><c>   1</c></rc>
    <rc><c>B </c><c>   1</c></rc>
    <rc><c>B </c><c>   1</c></rc>
    <rc><c>B </c><c>   1</c></rc>
    <rc><c>B </c><c>   1</c></rc>
    <rc><c>B </c><c>   1</c></rc>
    <rc><c>B </c><c>   1</c></rc>
    <rc><c>B </c><c>   1</c></rc>
    <rc><c>B </c><c>   1</c></rc>
    <rc><c>B </c><c>   1</c></rc>
    <rc><c>B </c><c>   1</c></rc>
    <rc><c>B </c><c>   1</c></rc>
    <rc><c>B </c><c>   1</c></rc>
    <rc><c>B </c><c>   1</c></rc>
    <rc><c>B </c><c>   1</c></rc>
    <rc><c>B </c><c>   1</c></rc>
    <rc><c>B </c><c>   1</c></rc>
    <rc><c>B </c><c>   1</c></rc>
    <rc><c>B </c><c>   1</c></rc>
    <rc><c>B </c><c>   1</c></rc>
    <rc><c>B </c><c>   1</c></rc>
    <rc><c>B </c><c>   1</c></rc>
    <rc><c>B </c><c>   1</c></rc>
    <rc><c>B </c><c>   1</c></rc>
    <rc><c>B </c><c>   1</c></rc>
    <rc><c>B </c><c>   1</c></rc>
    <rc><c>B </c><c>   1</c></rc>
    <rc><c>B </c><c>   1</c></rc>
    <rc><c>B </c><c>   1</c></rc>
    <rc><c>B </c><c>   1</c></rc>
    <rc><c>B </c><c>   1</c></rc>
    <rc><c>B </c><c>   1</c></rc>
    <rc><c>B </c><c>   1</c></rc>
    <rc><c>B </c><c>   1</c></rc>
    <rc><c>B </c><c>   1</c></rc>
    <rc><c>B </c><c>   1</c></rc>
    <rc><c>B </c><c>   1</c></rc>
    <rc><c>B </c><c>   1</c></rc>
    <rc><c>B </c><c>   1</c></rc>
    <rc><c>B </c><c>   1</c></rc>
    <rc><c>B </c><c>   1</c></rc>
    <rc><c>B </c><c>   1</c></rc>
    <rc><c>B </c><c>   1</c></rc>
    <rc><c>B </c><c>   1</c></rc>
    <rc><c>B </c><c>   1</c></rc>
    <rc><c>B </c><c>   1</c></rc>
    <rc><c>B </c><c>   1</c></rc>
    <rc><c>B </c><c>   1</c></rc>
    <rc><c>B </c><c>   1</c></rc>
    <rc><c>B </c><c>   1</c></rc>
    <rc><c>B </c><c>   1</c></rc>
    <rc><c>B </c><c>   1</c></rc>
    <rc><c>B </c><c>   1</c></rc>
    <rc><c>B </c><c>   1</c></rc>
    <rc><c>B </c><c>   1</c></rc>
    <rc><c>B </c><c>   1</c></rc>
    <rc><c>B </c><c>   1</c></rc>
    <rc><c>B </c><c>   1</c></rc>
    <rc><c>B </c><c>   1</c></rc>
    <rc><c>B </c><c>   1</c></rc>
    <rc><c>B </c><c>   1</c></rc>
    <rc><c>B </c><c>   1</c></rc>
    <rc><c>B </c><c>   1</c></rc>
    <rc><c>C </c><c>   2</c></rc>
    <rc><c>C </c><c>   2</c></rc>
    <rc><c>C </c><c>   2</c></rc>
    <rc><c>C </c><c>   2</c></rc>
    <rc><c>C </c><c>   2</c></rc>
    <rc><c>C </c><c>   2</c></rc>
    <rc><c>C </c><c>   2</c></rc>
    <rc><c>C </c><c>   2</c></rc>
    <rc><c>C </c><c>   2</c></rc>
    <rc><c>C </c><c>   2</c></rc>
    <rc><c>C </c><c>   2</c></rc>
    <rc><c>C </c><c>   2</c></rc>
    <rc><c>C </c><c>   2</c></rc>
    <rc><c>C </c><c>   2</c></rc>
    <rc><c>C </c><c>   2</c></rc>
    <rc><c>C </c><c>   2</c></rc>
   </set>
  </array>
  <array name="atomtypes" >
   <dimension dim="1">type</dimension>
   <field type="int">atomspertype</field>
   <field type="string">element</field>
   <field>mass</field>
   <field>valence</field>
   <field type="string">pseudopotential</field>
   <set>
    <rc><c>  96</c><c>B </c><c>     10.81100000</c><c>      3.00000000</c><c>  PAW_PBE B 06Sep2000                   </c></rc>
    <rc><c>  16</c><c>C </c><c>     12.01100000</c><c>      4.00000000</c><c>  PAW_PBE C 08Apr2002                   </c></rc>
   </set>
  </array>
 </atominfo>
 <structure name="initialpos" >
  <crystal>
   <varray name="basis" >
    <v>       9.51874700       0.07257100       4.30697600 </v>
    <v>       2.82380000       9.00098600       4.30697700 </v>
    <v>       0.09871600       0.07257100      10.36197100 </v>
   </varray>
   <i name="volume">    879.78198318 </i>
   <varray name="rec_basis" >
    <v>       0.10565731      -0.03277513      -0.00077703 </v>
    <v>      -0.00049946       0.11162744      -0.00077703 </v>
    <v>      -0.04370909      -0.03277515       0.09715269 </v>
   </varray>
  </crystal>
  <varray name="positions" >
   <v>       0.16039500       0.40051500       0.40051500 </v>
   <v>       0.16039500       0.40051500       0.90051500 </v>
   <v>       0.16039500       0.90051500       0.40051500 </v>
   <v>       0.16039500       0.90051500       0.90051500 </v>
   <v>       0.66039500       0.40051500       0.40051500 </v>
   <v>       0.66039500       0.40051500       0.90051500 </v>
   <v>       0.66039500       0.90051500       0.40051500 </v>
   <v>       0.66039500       0.90051500       0.90051500 </v>
   <v>       0.40051500       0.40051500       0.16039500 </v>
   <v>       0.40051500       0.40051500       0.66039500 </v>
   <v>       0.40051500       0.90051500       0.16039500 </v>
   <v>       0.40051500       0.90051500       0.66039500 </v>
   <v>       0.90051500       0.40051500       0.16039500 </v>
   <v>       0.90051500       0.40051500       0.66039500 </v>
   <v>       0.90051500       0.90051500       0.16039500 </v>
   <v>       0.90051500       0.90051500       0.66039500 </v>
   <v>       0.40051500       0.16039500       0.40051500 </v>
   <v>       0.40051500       0.16039500       0.90051500 </v>
   <v>       0.40051500       0.66039500       0.40051500 </v>
   <v>       0.40051500       0.66039500       0.90051500 </v>
   <v>       0.90051500       0.16039500       0.40051500 </v>
   <v>       0.90051500       0.16039500       0.90051500 </v>
   <v>       0.90051500       0.66039500       0.40051500 </v>
   <v>       0.90051500       0.66039500       0.90051500 </v>
   <v>       0.33960500       0.09948500       0.09948500 </v>
   <v>       0.33960500       0.09948500       0.59948500 </v>
   <v>       0.33960500       0.59948500       0.09948500 </v>
   <v>       0.33960500       0.59948500       0.59948500 </v>
   <v>       0.83960500       0.09948500       0.09948500 </v>
   <v>       0.83960500       0.09948500       0.59948500 </v>
   <v>       0.83960500       0.59948500       0.09948500 </v>
   <v>       0.83960500       0.59948500       0.59948500 </v>
   <v>       0.09948500       0.09948500       0.33960500 </v>
   <v>       0.09948500       0.09948500       0.83960500 </v>
   <v>       0.09948500       0.59948500       0.33960500 </v>
   <v>       0.09948500       0.59948500       0.83960500 </v>
   <v>       0.59948500       0.09948500       0.33960500 </v>
   <v>       0.59948500       0.09948500       0.83960500 </v>
   <v>       0.59948500       0.59948500       0.33960500 </v>
   <v>       0.59948500       0.59948500       0.83960500 </v>
   <v>       0.09948500       0.33960500       0.09948500 </v>
   <v>       0.09948500       0.33960500       0.59948500 </v>
   <v>       0.09948500       0.83960500       0.09948500 </v>
   <v>       0.09948500       0.83960500       0.59948500 </v>
   <v>       0.59948500       0.33960500       0.09948500 </v>
   <v>       0.59948500       0.33960500       0.59948500 </v>
   <v>       0.59948500       0.83960500       0.09948500 </v>
   <v>       0.59948500       0.83960500       0.59948500 </v>
   <v>       0.33229300       0.00011500       0.00011500 </v>
   <v>       0.33229300       0.00011500       0.50011500 </v>
   <v>       0.33229300       0.50011500       0.00011500 </v>
   <v>       0.33229300       0.50011500       0.50011500 </v>
   <v>       0.83229300       0.00011500       0.00011500 </v>
   <v>       0.83229300       0.00011500       0.50011500 </v>
   <v>       0.83229300       0.50011500       0.00011500 </v>
   <v>       0.83229300       0.50011500       0.50011500 </v>
   <v>       0.00011500       0.00011500       0.33229300 </v>
   <v>       0.00011500       0.00011500       0.83229300 </v>
   <v>       0.00011500       0.50011500       0.33229300 </v>
   <v>       0.00011500       0.50011500       0.83229300 </v>
   <v>       0.50011500       0.00011500       0.33229300 </v>
   <v>       0.50011500       0.00011500       0.83229300 </v>
   <v>       0.50011500       0.50011500       0.33229300 </v>
   <v>       0.50011500       0.50011500       0.83229300 </v>
   <v>       0.00011500       0.33229300       0.00011500 </v>
   <v>       0.00011500       0.33229300       0.50011500 </v>
   <v>       0.00011500       0.83229300       0.00011500 </v>
   <v>       0.00011500       0.83229300       0.50011500 </v>
   <v>       0.50011500       0.33229300       0.00011500 </v>
   <v>       0.50011500       0.33229300       0.50011500 </v>
   <v>       0.50011500       0.83229300       0.00011500 </v>
   <v>       0.50011500       0.83229300       0.50011500 </v>
   <v>       0.16770700       0.99988500       0.99988500 </v>
   <v>       0.16770700       0.99988500       0.49988500 </v>
   <v>       0.16770700       0.49988500       0.99988500 </v>
   <v>       0.16770700       0.49988500       0.49988500 </v>
   <v>       0.66770700       0.99988500       0.99988500 </v>
   <v>       0.66770700       0.99988500       0.49988500 </v>
   <v>       0.66770700       0.49988500       0.99988500 </v>
   <v>       0.66770700       0.49988500       0.49988500 </v>
   <v>       0.99988500       0.99988500       0.16770700 </v>
   <v>       0.99988500       0.99988500       0.66770700 </v>
   <v>       0.99988500       0.49988500       0.16770700 </v>
   <v>       0.99988500       0.49988500       0.66770700 </v>
   <v>       0.49988500       0.99988500       0.16770700 </v>
   <v>       0.49988500       0.99988500       0.66770700 </v>
   <v>       0.49988500       0.49988500       0.16770700 </v>
   <v>       0.49988500       0.49988500       0.66770700 </v>
   <v>       0.99988500       0.16770700       0.99988500 </v>
   <v>       0.99988500       0.16770700       0.49988500 </v>
   <v>       0.99988500       0.66770700       0.99988500 </v>
   <v>       0.99988500       0.66770700       0.49988500 </v>
   <v>       0.49988500       0.16770700       0.99988500 </v>
   <v>       0.49988500       0.16770700       0.49988500 </v>
   <v>       0.49988500       0.66770700       0.99988500 </v>
   <v>       0.49988500       0.66770700       0.49988500 </v>
   <v>       0.31539700       0.31539700       0.31539700 </v>
   <v>       0.31539700       0.31539700       0.81539700 </v>
   <v>       0.31539700       0.81539700       0.31539700 </v>
   <v>       0.31539700       0.81539700       0.81539700 </v>
   <v>       0.81539700       0.31539700       0.31539700 </v>
   <v>       0.81539700       0.31539700       0.81539700 </v>
   <v>       0.81539700       0.81539700       0.31539700 </v>
   <v>       0.81539700       0.81539700       0.81539700 </v>
   <v>       0.18460300       0.18460300       0.18460300 </v>
   <v>       0.18460300       0.18460300       0.68460300 </v>
   <v>       0.18460300       0.68460300       0.18460300 </v>
   <v>       0.18460300       0.68460300       0.68460300 </v>
   <v>       0.68460300       0.18460300       0.18460300 </v>
   <v>       0.68460300       0.18460300       0.68460300 </v>
   <v>       0.68460300       0.68460300       0.18460300 </v>
   <v>       0.68460300       0.68460300       0.68460300 </v>
  </varray>
 </structure>
 <calculation>
  <scstep>
   <time name="dav">    6.14    6.14</time>
   <time name="total">    6.42    6.42</time>
   <energy>
    <i name="alphaZ">   1012.26277164 </i>
    <i name="ewald">  -9967.99574540 </i>
    <i name="hartreedc">  -1059.79982863 </i>
    <i name="XCdc">    895.24761458 </i>
    <i name="pawpsdc">   5912.33983061 </i>
    <i name="pawaedc">  -5839.33960861 </i>
    <i name="eentropy">      0.00000000 </i>
    <i name="bandstr">   1212.56668428 </i>
    <i name="atom">   9186.75495500 </i>
    <i name="e_fr_energy">   1352.03667348 </i>
    <i name="e_wo_entrp">   1352.03667348 </i>
    <i name="e_0_energy">   1352.03667348 </i>
   </energy>
  </scstep>
  <scstep>
   <time name="dav">    7.22    7.22</time>
   <time name="total">    7.24    7.24</time>
   <energy>
    <i name="e_fr_energy">   -711.77198560 </i>
    <i name="e_wo_entrp">   -711.77198560 </i>
    <i name="e_0_energy">   -711.77198560 </i>
   </energy>
  </scstep>
  <scstep>
   <time name="dav">    6.93    6.93</time>
   <time name="total">    6.95    6.95</time>
   <energy>
    <i name="e_fr_energy">   -836.16706534 </i>
    <i name="e_wo_entrp">   -836.16706534 </i>
    <i name="e_0_energy">   -836.16706534 </i>
   </energy>
  </scstep>
  <scstep>
   <time name="dav">    6.84    6.84</time>
   <time name="total">    6.86    6.86</time>
   <energy>
    <i name="e_fr_energy">   -839.02219963 </i>
    <i name="e_wo_entrp">   -839.02219963 </i>
    <i name="e_0_energy">   -839.02219963 </i>
   </energy>
  </scstep>
  <scstep>
   <time name="dav">    6.84    6.84</time>
   <time name="total">    8.63    8.63</time>
   <energy>
    <i name="e_fr_energy">   -839.10123250 </i>
    <i name="e_wo_entrp">   -839.10123250 </i>
    <i name="e_0_energy">   -839.10123250 </i>
   </energy>
  </scstep>
  <scstep>
   <time name="diag">    1.31    1.31</time>
   <time name="diis">    5.59    5.67</time>
   <time name="orth">    0.04    0.04</time>
   <time name="total">    8.95    9.04</time>
   <energy>
    <i name="e_fr_energy">   -804.06450843 </i>
    <i name="e_wo_entrp">   -804.06450843 </i>
    <i name="e_0_energy">   -804.06450843 </i>
   </energy>
  </scstep>
  <scstep>
   <time name="diag">    1.32    1.32</time>
   <time name="diis">    5.60    5.58</time>
   <time name="orth">    0.04    0.04</time>
   <time name="total">    9.01    8.98</time>
   <energy>
    <i name="e_fr_energy">   -793.68812754 </i>
    <i name="e_wo_entrp">   -793.68812754 </i>
    <i name="e_0_energy">   -793.68812754 </i>
   </energy>
  </scstep>
  <scstep>
   <time name="diag">    1.32    1.32</time>
   <time name="diis">    5.60    5.57</time>
   <time name="orth">    0.04    0.04</time>
   <time name="total">    8.99    8.96</time>
   <energy>
    <i name="e_fr_energy">   -793.86749659 </i>
    <i name="e_wo_entrp">   -793.86749659 </i>
    <i name="e_0_energy">   -793.86749659 </i>
   </energy>
  </scstep>
  <scstep>
   <time name="diag">    1.32    1.32</time>
   <time name="diis">    5.60    5.58</time>
   <time name="orth">    0.04    0.04</time>
   <time name="total">    8.98    8.96</time>
   <energy>
    <i name="e_fr_energy">   -793.93166405 </i>
    <i name="e_wo_entrp">   -793.93166405 </i>
    <i name="e_0_energy">   -793.93166405 </i>
   </energy>
  </scstep>
  <scstep>
   <time name="diag">    1.33    1.33</time>
   <time name="diis">    5.61    5.58</time>
   <time name="orth">    0.04    0.04</time>
   <time name="total">    9.00    8.98</time>
   <energy>
    <i name="e_fr_energy">   -793.90705429 </i>
    <i name="e_wo_entrp">   -793.90705429 </i>
    <i name="e_0_energy">   -793.90705429 </i>
   </energy>
  </scstep>
  <scstep>
   <time name="diag">    1.32    1.32</time>
   <time name="diis">    5.65    5.62</time>
   <time name="orth">    0.04    0.04</time>
   <time name="total">    9.03    9.01</time>
   <energy>
    <i name="e_fr_energy">   -793.91289486 </i>
    <i name="e_wo_entrp">   -793.91289486 </i>
    <i name="e_0_energy">   -793.91289486 </i>
   </energy>
  </scstep>
  <scstep>
   <time name="diag">    1.31    1.31</time>
   <time name="diis">    5.74    5.72</time>
   <time name="orth">    0.04    0.04</time>
   <time name="total">    9.09    9.07</time>
   <energy>
    <i name="e_fr_energy">   -793.91270091 </i>
    <i name="e_wo_entrp">   -793.91270091 </i>
    <i name="e_0_energy">   -793.91270091 </i>
   </energy>
  </scstep>
  <scstep>
   <time name="diag">    1.32    1.32</time>
   <time name="diis">    5.64    5.61</time>
   <time name="orth">    0.04    0.04</time>
   <time name="total">    9.01    8.99</time>
   <energy>
    <i name="e_fr_energy">   -793.91240640 </i>
    <i name="e_wo_entrp">   -793.91240640 </i>
    <i name="e_0_energy">   -793.91240640 </i>
   </energy>
  </scstep>
  <scstep>
   <time name="diag">    1.32    1.32</time>
   <time name="diis">    5.62    5.59</time>
   <time name="orth">    0.04    0.04</time>
   <time name="total">    9.01    8.99</time>
   <energy>
    <i name="e_fr_energy">   -793.91292980 </i>
    <i name="e_wo_entrp">   -793.91292980 </i>
    <i name="e_0_energy">   -793.91292980 </i>
   </energy>
  </scstep>
  <scstep>
   <time name="diag">    1.32    1.32</time>
   <time name="diis">    5.70    5.68</time>
   <time name="orth">    0.04    0.04</time>
   <time name="total">    9.07    9.05</time>
   <energy>
    <i name="e_fr_energy">   -793.91290761 </i>
    <i name="e_wo_entrp">   -793.91290761 </i>
    <i name="e_0_energy">   -793.91290761 </i>
   </energy>
  </scstep>
  <scstep>
   <time name="diag">    1.32    1.32</time>
   <time name="diis">    5.60    5.58</time>
   <time name="orth">    0.04    0.04</time>
   <time name="total">    8.99    8.97</time>
   <energy>
    <i name="e_fr_energy">   -793.91295191 </i>
    <i name="e_wo_entrp">   -793.91295191 </i>
    <i name="e_0_energy">   -793.91295191 </i>
   </energy>
  </scstep>
  <scstep>
   <time name="diag">    1.32    1.32</time>
   <time name="diis">    4.02    4.01</time>
   <time name="orth">    0.04    0.04</time>
   <time name="total">    7.42    7.41</time>
   <energy>
    <i name="e_fr_energy">   -793.91294398 </i>
    <i name="e_wo_entrp">   -793.91294398 </i>
    <i name="e_0_energy">   -793.91294398 </i>
   </energy>
  </scstep>
  <scstep>
   <time name="diag">    1.31    1.31</time>
   <time name="diis">    3.59    3.58</time>
   <time name="orth">    0.04    0.04</time>
   <time name="total">    6.98    6.97</time>
   <energy>
    <i name="e_fr_energy">   -793.91292480 </i>
    <i name="e_wo_entrp">   -793.91292480 </i>
    <i name="e_0_energy">   -793.91292480 </i>
   </energy>
  </scstep>
  <scstep>
   <time name="diag">    1.32    1.32</time>
   <time name="diis">    3.37    3.37</time>
   <time name="orth">    0.04    0.04</time>
   <time name="total">    4.99    4.99</time>
   <energy>
    <i name="alphaZ">   1012.26277164 </i>
    <i name="ewald">  -9967.99574540 </i>
    <i name="hartreedc">  -1479.97723440 </i>
    <i name="XCdc">    925.72418381 </i>
    <i name="pawpsdc">  32067.55049854 </i>
    <i name="pawaedc"> -32004.03921432 </i>
    <i name="eentropy">      0.00000000 </i>
    <i name="bandstr">   -534.19314065 </i>
    <i name="atom">   9186.75495500 </i>
    <i name="e_fr_energy">   -793.91292576 </i>
    <i name="e_wo_entrp">   -793.91292576 </i>
    <i name="e_0_energy">   -793.91292576 </i>
   </energy>
  </scstep>
  <structure>
   <crystal>
    <varray name="basis" >
     <v>       9.51874700       0.07257100       4.30697600 </v>
     <v>       2.82380000       9.00098600       4.30697700 </v>
     <v>       0.09871600       0.07257100      10.36197100 </v>
    </varray>
    <i name="volume">    879.78198318 </i>
    <varray name="rec_basis" >
     <v>       0.10565731      -0.03277513      -0.00077703 </v>
     <v>      -0.00049946       0.11162744      -0.00077703 </v>
     <v>      -0.04370909      -0.03277515       0.09715269 </v>
    </varray>
   </crystal>
   <varray name="positions" >
    <v>       0.16039500       0.40051500       0.40051500 </v>
    <v>       0.16039500       0.40051500       0.90051500 </v>
    <v>       0.16039500       0.90051500       0.40051500 </v>
    <v>       0.16039500       0.90051500       0.90051500 </v>
    <v>       0.66039500       0.40051500       0.40051500 </v>
    <v>       0.66039500       0.40051500       0.90051500 </v>
    <v>       0.66039500       0.90051500       0.40051500 </v>
    <v>       0.66039500       0.90051500       0.90051500 </v>
    <v>       0.40051500       0.40051500       0.16039500 </v>
    <v>       0.40051500       0.40051500       0.66039500 </v>
    <v>       0.40051500       0.90051500       0.16039500 </v>
    <v>       0.40051500       0.90051500       0.66039500 </v>
    <v>       0.90051500       0.40051500       0.16039500 </v>
    <v>       0.90051500       0.40051500       0.66039500 </v>
    <v>       0.90051500       0.90051500       0.16039500 </v>
    <v>       0.90051500       0.90051500       0.66039500 </v>
    <v>       0.40051500       0.16039500       0.40051500 </v>
    <v>       0.40051500       0.16039500       0.90051500 </v>
    <v>       0.40051500       0.66039500       0.40051500 </v>
    <v>       0.40051500       0.66039500       0.90051500 </v>
    <v>       0.90051500       0.16039500       0.40051500 </v>
    <v>       0.90051500       0.16039500       0.90051500 </v>
    <v>       0.90051500       0.66039500       0.40051500 </v>
    <v>       0.90051500       0.66039500       0.90051500 </v>
    <v>       0.33960500       0.09948500       0.09948500 </v>
    <v>       0.33960500       0.09948500       0.59948500 </v>
    <v>       0.33960500       0.59948500       0.09948500 </v>
    <v>       0.33960500       0.59948500       0.59948500 </v>
    <v>       0.83960500       0.09948500       0.09948500 </v>
    <v>       0.83960500       0.09948500       0.59948500 </v>
    <v>       0.83960500       0.59948500       0.09948500 </v>
    <v>       0.83960500       0.59948500       0.59948500 </v>
    <v>       0.09948500       0.09948500       0.33960500 </v>
    <v>       0.09948500       0.09948500       0.83960500 </v>
    <v>       0.09948500       0.59948500       0.33960500 </v>
    <v>       0.09948500       0.59948500       0.83960500 </v>
    <v>       0.59948500       0.09948500       0.33960500 </v>
    <v>       0.59948500       0.09948500       0.83960500 </v>
    <v>       0.59948500       0.59948500       0.33960500 </v>
    <v>       0.59948500       0.59948500       0.83960500 </v>
    <v>       0.09948500       0.33960500       0.09948500 </v>
    <v>       0.09948500       0.33960500       0.59948500 </v>
    <v>       0.09948500       0.83960500       0.09948500 </v>
    <v>       0.09948500       0.83960500       0.59948500 </v>
    <v>       0.59948500       0.33960500       0.09948500 </v>
    <v>       0.59948500       0.33960500       0.59948500 </v>
    <v>       0.59948500       0.83960500       0.09948500 </v>
    <v>       0.59948500       0.83960500       0.59948500 </v>
    <v>       0.33229300       0.00011500       0.00011500 </v>
    <v>       0.33229300       0.00011500       0.50011500 </v>
    <v>       0.33229300       0.50011500       0.00011500 </v>
    <v>       0.33229300       0.50011500       0.50011500 </v>
    <v>       0.83229300       0.00011500       0.00011500 </v>
    <v>       0.83229300       0.00011500       0.50011500 </v>
    <v>       0.83229300       0.50011500       0.00011500 </v>
    <v>       0.83229300       0.50011500       0.50011500 </v>
    <v>       0.00011500       0.00011500       0.33229300 </v>
    <v>       0.00011500       0.00011500       0.83229300 </v>
    <v>       0.00011500       0.50011500       0.33229300 </v>
    <v>       0.00011500       0.50011500       0.83229300 </v>
    <v>       0.50011500       0.00011500       0.33229300 </v>
    <v>       0.50011500       0.00011500       0.83229300 </v>
    <v>       0.50011500       0.50011500       0.33229300 </v>
    <v>       0.50011500       0.50011500       0.83229300 </v>
    <v>       0.00011500       0.33229300       0.00011500 </v>
    <v>       0.00011500       0.33229300       0.50011500 </v>
    <v>       0.00011500       0.83229300       0.00011500 </v>
    <v>       0.00011500       0.83229300       0.50011500 </v>
    <v>       0.50011500       0.33229300       0.00011500 </v>
    <v>       0.50011500       0.33229300       0.50011500 </v>
    <v>       0.50011500       0.83229300       0.00011500 </v>
    <v>       0.50011500       0.83229300       0.50011500 </v>
    <v>       0.16770700       0.99988500       0.99988500 </v>
    <v>       0.16770700       0.99988500       0.49988500 </v>
    <v>       0.16770700       0.49988500       0.99988500 </v>
    <v>       0.16770700       0.49988500       0.49988500 </v>
    <v>       0.66770700       0.99988500       0.99988500 </v>
    <v>       0.66770700       0.99988500       0.49988500 </v>
    <v>       0.66770700       0.49988500       0.99988500 </v>
    <v>       0.66770700       0.49988500       0.49988500 </v>
    <v>       0.99988500       0.99988500       0.16770700 </v>
    <v>       0.99988500       0.99988500       0.66770700 </v>
    <v>       0.99988500       0.49988500       0.16770700 </v>
    <v>       0.99988500       0.49988500       0.66770700 </v>
    <v>       0.49988500       0.99988500       0.16770700 </v>
    <v>       0.49988500       0.99988500       0.66770700 </v>
    <v>       0.49988500       0.49988500       0.16770700 </v>
    <v>       0.49988500       0.49988500       0.66770700 </v>
    <v>       0.99988500       0.16770700       0.99988500 </v>
    <v>       0.99988500       0.16770700       0.49988500 </v>
    <v>       0.99988500       0.66770700       0.99988500 </v>
    <v>       0.99988500       0.66770700       0.49988500 </v>
    <v>       0.49988500       0.16770700       0.99988500 </v>
    <v>       0.49988500       0.16770700       0.49988500 </v>
    <v>       0.49988500       0.66770700       0.99988500 </v>
    <v>       0.49988500       0.66770700       0.49988500 </v>
    <v>       0.31539700       0.31539700       0.31539700 </v>
    <v>       0.31539700       0.31539700       0.81539700 </v>
    <v>       0.31539700       0.81539700       0.31539700 </v>
    <v>       0.31539700       0.81539700       0.81539700 </v>
    <v>       0.81539700       0.31539700       0.31539700 </v>
    <v>       0.81539700       0.31539700       0.81539700 </v>
    <v>       0.81539700       0.81539700       0.31539700 </v>
    <v>       0.81539700       0.81539700       0.81539700 </v>
    <v>       0.18460300       0.18460300       0.18460300 </v>
    <v>       0.18460300       0.18460300       0.68460300 </v>
    <v>       0.18460300       0.68460300       0.18460300 </v>
    <v>       0.18460300       0.68460300       0.68460300 </v>
    <v>       0.68460300       0.18460300       0.18460300 </v>
    <v>       0.68460300       0.18460300       0.68460300 </v>
    <v>       0.68460300       0.68460300       0.18460300 </v>
    <v>       0.68460300       0.68460300       0.68460300 </v>
   </varray>
  </structure>
  <varray name="forces" >
   <v>      -0.04662955      -0.07217234      -0.11969065 </v>
   <v>      -0.04662955      -0.07217234      -0.11969065 </v>
   <v>      -0.04662955      -0.07217234      -0.11969065 </v>
   <v>      -0.04662955      -0.07217234      -0.11969065 </v>
   <v>      -0.04662955      -0.07217234      -0.11969065 </v>
   <v>      -0.04662955      -0.07217234      -0.11969065 </v>
   <v>      -0.04662955      -0.07217234      -0.11969065 </v>
   <v>      -0.04662955      -0.07217234      -0.11969065 </v>
   <v>       0.05684618      -0.03827348       0.04246222 </v>
   <v>       0.05684618      -0.03827348       0.04246222 </v>
   <v>       0.05684618      -0.03827348       0.04246222 </v>
   <v>       0.05684618      -0.03827348       0.04246222 </v>
   <v>       0.05684618      -0.03827348       0.04246222 </v>
   <v>       0.05684618      -0.03827348       0.04246222 </v>
   <v>       0.05684618      -0.03827348       0.04246222 </v>
   <v>       0.05684618      -0.03827348       0.04246222 </v>
   <v>       0.04355244      -0.02231160      -0.04068857 </v>
   <v>       0.04355244      -0.02231160      -0.04068857 </v>
   <v>       0.04355244      -0.02231160      -0.04068857 </v>
   <v>       0.04355244      -0.02231160      -0.04068857 </v>
   <v>       0.04355244      -0.02231160      -0.04068857 </v>
   <v>       0.04355244      -0.02231160      -0.04068857 </v>
   <v>       0.04355244      -0.02231160      -0.04068857 </v>
   <v>       0.04355244      -0.02231160      -0.04068857 </v>
   <v>       0.04662955       0.07217234       0.11969065 </v>
   <v>       0.04662955       0.07217234       0.11969065 </v>
   <v>       0.04662955       0.07217234       0.11969065 </v>
   <v>       0.04662955       0.07217234       0.11969065 </v>
   <v>       0.04662955       0.07217234       0.11969065 </v>
   <v>       0.04662955       0.07217234       0.11969065 </v>
   <v>       0.04662955       0.07217234       0.11969065 </v>
   <v>       0.04662955       0.07217234       0.11969065 </v>
   <v>      -0.05684618       0.03827348      -0.04246222 </v>
   <v>      -0.05684618       0.03827348      -0.04246222 </v>
   <v>      -0.05684618       0.03827348      -0.04246222 </v>
   <v>      -0.05684618       0.03827348      -0.04246222 </v>
   <v>      -0.05684618       0.03827348      -0.04246222 </v>
   <v>      -0.05684618       0.03827348      -0.04246222 </v>
   <v>      -0.05684618       0.03827348      -0.04246222 </v>
   <v>      -0.05684618       0.03827348      -0.04246222 </v>
   <v>      -0.04355244       0.02231160       0.04068857 </v>
   <v>      -0.04355244       0.02231160       0.04068857 </v>
   <v>      -0.04355244       0.02231160       0.04068857 </v>
   <v>      -0.04355244       0.02231160       0.04068857 </v>
   <v>      -0.04355244       0.02231160       0.04068857 </v>
   <v>      -0.04355244       0.02231160       0.04068857 </v>
   <v>      -0.04355244       0.02231160       0.04068857 </v>
   <v>      -0.04355244       0.02231160       0.04068857 </v>
   <v>      -0.07234170       0.03633611      -0.01410877 </v>
   <v>      -0.07234170       0.03633611      -0.01410877 </v>
   <v>      -0.07234170       0.03633611      -0.01410877 </v>
   <v>      -0.07234170       0.03633611      -0.01410877 </v>
   <v>      -0.07234170       0.03633611      -0.01410877 </v>
   <v>      -0.07234170       0.03633611      -0.01410877 </v>
   <v>      -0.07234170       0.03633611      -0.01410877 </v>
   <v>      -0.07234170       0.03633611      -0.01410877 </v>
   <v>       0.04230200      -0.00422740       0.10246988 </v>
   <v>       0.04230200      -0.00422740       0.10246988 </v>
   <v>       0.04230200      -0.00422740       0.10246988 </v>
   <v>       0.04230200      -0.00422740       0.10246988 </v>
   <v>       0.04230200      -0.00422740       0.10246988 </v>
   <v>       0.04230200      -0.00422740       0.10246988 </v>
   <v>       0.04230200      -0.00422740       0.10246988 </v>
   <v>       0.04230200      -0.00422740       0.10246988 </v>
   <v>       0.07646578       0.04944134       0.03302455 </v>
   <v>       0.07646578       0.04944134       0.03302455 </v>
   <v>       0.07646578       0.04944134       0.03302455 </v>
   <v>       0.07646578       0.04944134       0.03302455 </v>
   <v>       0.07646578       0.04944134       0.03302455 </v>
   <v>       0.07646578       0.04944134       0.03302455 </v>
   <v>       0.07646578       0.04944134       0.03302455 </v>
   <v>       0.07646578       0.04944134       0.03302455 </v>
   <v>       0.07234170      -0.03633611       0.01410877 </v>
   <v>       0.07234170      -0.03633611       0.01410877 </v>
   <v>       0.07234170      -0.03633611       0.01410877 </v>
   <v>       0.07234170      -0.03633611       0.01410877 </v>
   <v>       0.07234170      -0.03633611       0.01410877 </v>
   <v>       0.07234170      -0.03633611       0.01410877 </v>
   <v>       0.07234170      -0.03633611       0.01410877 </v>
   <v>       0.07234170      -0.03633611       0.01410877 </v>
   <v>      -0.04230200       0.00422740      -0.10246988 </v>
   <v>      -0.04230200       0.00422740      -0.10246988 </v>
   <v>      -0.04230200       0.00422740      -0.10246988 </v>
   <v>      -0.04230200       0.00422740      -0.10246988 </v>
   <v>      -0.04230200       0.00422740      -0.10246988 </v>
   <v>      -0.04230200       0.00422740      -0.10246988 </v>
   <v>      -0.04230200       0.00422740      -0.10246988 </v>
   <v>      -0.04230200       0.00422740      -0.10246988 </v>
   <v>      -0.07646578      -0.04944134      -0.03302455 </v>
   <v>      -0.07646578      -0.04944134      -0.03302455 </v>
   <v>      -0.07646578      -0.04944134      -0.03302455 </v>
   <v>      -0.07646578      -0.04944134      -0.03302455 </v>
   <v>      -0.07646578      -0.04944134      -0.03302455 </v>
   <v>      -0.07646578      -0.04944134      -0.03302455 </v>
   <v>      -0.07646578      -0.04944134      -0.03302455 </v>
   <v>      -0.07646578      -0.04944134      -0.03302455 </v>
   <v>      -0.02583538       0.08385754       0.02016345 </v>
   <v>      -0.02583538       0.08385754       0.02016345 </v>
   <v>      -0.02583538       0.08385754       0.02016345 </v>
   <v>      -0.02583538       0.08385754       0.02016345 </v>
   <v>      -0.02583538       0.08385754       0.02016345 </v>
   <v>      -0.02583538       0.08385754       0.02016345 </v>
   <v>      -0.02583538       0.08385754       0.02016345 </v>
   <v>      -0.02583538       0.08385754       0.02016345 </v>
   <v>       0.02583538      -0.08385754      -0.02016345 </v>
   <v>       0.02583538      -0.08385754      -0.02016345 </v>
   <v>       0.02583538      -0.08385754      -0.02016345 </v>
   <v>       0.02583538      -0.08385754      -0.02016345 </v>
   <v>       0.02583538      -0.08385754      -0.02016345 </v>
   <v>       0.02583538      -0.08385754      -0.02016345 </v>
   <v>       0.02583538      -0.08385754      -0.02016345 </v>
   <v>       0.02583538      -0.08385754      -0.02016345 </v>
  </varray>
  <varray name="stress" >
   <v>     -46.79941840       5.45421864      12.34234669 </v>
   <v>       5.45421861      -9.04191932       3.59108536 </v>
   <v>      12.34234674       3.59108532      -3.15375029 </v>
  </varray>
  <energy>
   <i name="e_fr_energy">   -793.91292576 </i>
   <i name="e_wo_entrp">   -793.91292576 </i>
   <i name="e_0_energy">   -793.91292576 </i>
  </energy>
  <time name="totalsc">  175.75  175.63</time>
 </calculation>
 <calculation>
  <scstep>
   <time name="dav">    6.49    6.49</time>
   <time name="total">    8.51    8.51</time>
   <energy>
    <i name="alphaZ">   1012.26277164 </i>
    <i name="ewald">  -9954.14359335 </i>
    <i name="hartreedc">  -1487.12727829 </i>
    <i name="XCdc">    925.80419629 </i>
    <i name="pawpsdc">  32067.51623606 </i>
    <i name="pawaedc"> -32004.00493437 </i>
    <i name="eentropy">      0.00000000 </i>
    <i name="bandstr">   -541.16076534 </i>
    <i name="atom">   9186.75495500 </i>
    <i name="e_fr_energy">   -794.09841236 </i>
    <i name="e_wo_entrp">   -794.09841236 </i>
    <i name="e_0_energy">   -794.09841236 </i>
   </energy>
  </scstep>
  <scstep>
   <time name="diag">    1.33    1.33</time>
   <time name="diis">    5.60    5.58</time>
   <time name="orth">    0.04    0.04</time>
   <time name="total">    8.99    8.97</time>
   <energy>
    <i name="e_fr_energy">   -794.00664483 </i>
    <i name="e_wo_entrp">   -794.00664483 </i>
    <i name="e_0_energy">   -794.00664483 </i>
   </energy>
  </scstep>
  <scstep>
   <time name="diag">    1.32    1.32</time>
   <time name="diis">    5.60    5.57</time>
   <time name="orth">    0.04    0.04</time>
   <time name="total">    8.98    8.95</time>
   <energy>
    <i name="e_fr_energy">   -793.98286934 </i>
    <i name="e_wo_entrp">   -793.98286934 </i>
    <i name="e_0_energy">   -793.98286934 </i>
   </energy>
  </scstep>
  <scstep>
   <time name="diag">    1.32    1.32</time>
   <time name="diis">    5.59    5.57</time>
   <time name="orth">    0.04    0.04</time>
   <time name="total">    8.97    8.95</time>
   <energy>
    <i name="e_fr_energy">   -793.98180861 </i>
    <i name="e_wo_entrp">   -793.98180861 </i>
    <i name="e_0_energy">   -793.98180861 </i>
   </energy>
  </scstep>
  <scstep>
   <time name="diag">    1.32    1.32</time>
   <time name="diis">    5.70    5.68</time>
   <time name="orth">    0.04    0.04</time>
   <time name="total">    9.09    9.06</time>
   <energy>
    <i name="e_fr_energy">   -793.98218456 </i>
    <i name="e_wo_entrp">   -793.98218456 </i>
    <i name="e_0_energy">   -793.98218456 </i>
   </energy>
  </scstep>
  <scstep>
   <time name="diag">    1.32    1.32</time>
   <time name="diis">    5.69    5.66</time>
   <time name="orth">    0.04    0.04</time>
   <time name="total">    9.08    9.05</time>
   <energy>
    <i name="e_fr_energy">   -793.98232985 </i>
    <i name="e_wo_entrp">   -793.98232985 </i>
    <i name="e_0_energy">   -793.98232985 </i>
   </energy>
  </scstep>
  <scstep>
   <time name="diag">    1.31    1.31</time>
   <time name="diis">    5.72    5.68</time>
   <time name="orth">    0.04    0.04</time>
   <time name="total">    9.07    9.04</time>
   <energy>
    <i name="e_fr_energy">   -793.98241760 </i>
    <i name="e_wo_entrp">   -793.98241760 </i>
    <i name="e_0_energy">   -793.98241760 </i>
   </energy>
  </scstep>
  <scstep>
   <time name="diag">    1.32    1.32</time>
   <time name="diis">    5.72    5.70</time>
   <time name="orth">    0.04    0.04</time>
   <time name="total">    9.09    9.07</time>
   <energy>
    <i name="e_fr_energy">   -793.98243692 </i>
    <i name="e_wo_entrp">   -793.98243692 </i>
    <i name="e_0_energy">   -793.98243692 </i>
   </energy>
  </scstep>
  <scstep>
   <time name="diag">    1.32    1.32</time>
   <time name="diis">    4.66    4.64</time>
   <time name="orth">    0.04    0.04</time>
   <time name="total">    8.04    8.02</time>
   <energy>
    <i name="e_fr_energy">   -793.98242715 </i>
    <i name="e_wo_entrp">   -793.98242715 </i>
    <i name="e_0_energy">   -793.98242715 </i>
   </energy>
  </scstep>
  <scstep>
   <time name="diag">    1.31    1.31</time>
   <time name="diis">    3.61    3.61</time>
   <time name="orth">    0.04    0.04</time>
   <time name="total">    6.98    6.98</time>
   <energy>
    <i name="e_fr_energy">   -793.98243321 </i>
    <i name="e_wo_entrp">   -793.98243321 </i>
    <i name="e_0_energy">   -793.98243321 </i>
   </energy>
  </scstep>
  <scstep>
   <time name="diag">    1.32    1.32</time>
   <time name="diis">    3.44    3.43</time>
   <time name="orth">    0.04    0.04</time>
   <time name="total">    6.82    6.81</time>
   <energy>
    <i name="e_fr_energy">   -793.98243645 </i>
    <i name="e_wo_entrp">   -793.98243645 </i>
    <i name="e_0_energy">   -793.98243645 </i>
   </energy>
  </scstep>
  <scstep>
   <time name="diag">    1.32    1.32</time>
   <time name="diis">    3.08    3.07</time>
   <time name="orth">    0.04    0.04</time>
   <time name="total">    4.69    4.69</time>
   <energy>
    <i name="alphaZ">   1012.26277164 </i>
    <i name="ewald">  -9954.14359335 </i>
    <i name="hartreedc">  -1491.98156409 </i>
    <i name="XCdc">    926.04356631 </i>
    <i name="pawpsdc">  32145.44563848 </i>
    <i name="pawaedc"> -32081.96409683 </i>
    <i name="eentropy">      0.00000000 </i>
    <i name="bandstr">   -536.40011332 </i>
    <i name="atom">   9186.75495500 </i>
    <i name="e_fr_energy">   -793.98243614 </i>
    <i name="e_wo_entrp">   -793.98243614 </i>
    <i name="e_0_energy">   -793.98243614 </i>
   </energy>
  </scstep>
  <structure>
   <crystal>
    <varray name="basis" >
     <v>       9.47045659       0.08869263       4.35170715 </v>
     <v>       2.82990198       9.03103087       4.33974721 </v>
     <v>       0.12842735       0.08168313      10.40293471 </v>
    </varray>
    <i name="volume">    879.78198318 </i>
    <varray name="rec_basis" >
     <v>       0.10638402      -0.03282852      -0.00105558 </v>
     <v>      -0.00064471       0.11134766      -0.00086634 </v>
     <v>      -0.04423312      -0.03271775       0.09692969 </v>
    </varray>
   </crystal>
   <varray name="positions" >
    <v>       0.16027592       0.40013195       0.40016646 </v>
    <v>       0.16027592       0.40013195       0.90016646 </v>
    <v>       0.16027592       0.90013195       0.40016646 </v>
    <v>       0.16027592       0.90013195       0.90016646 </v>
    <v>       0.66027592       0.40013195       0.40016646 </v>
    <v>       0.66027592       0.40013195       0.90016646 </v>
    <v>       0.66027592       0.90013195       0.40016646 </v>
    <v>       0.66027592       0.90013195       0.90016646 </v>
    <v>       0.40086368       0.40030593       0.16053466 </v>
    <v>       0.40086368       0.40030593       0.66053466 </v>
    <v>       0.40086368       0.90030593       0.16053466 </v>
    <v>       0.40086368       0.90030593       0.66053466 </v>
    <v>       0.90086368       0.40030593       0.16053466 </v>
    <v>       0.90086368       0.40030593       0.66053466 </v>
    <v>       0.90086368       0.90030593       0.16053466 </v>
    <v>       0.90086368       0.90030593       0.66053466 </v>
    <v>       0.40077380       0.16027532       0.40026774 </v>
    <v>       0.40077380       0.16027532       0.90026774 </v>
    <v>       0.40077380       0.66027532       0.40026774 </v>
    <v>       0.40077380       0.66027532       0.90026774 </v>
    <v>       0.90077380       0.16027532       0.40026774 </v>
    <v>       0.90077380       0.16027532       0.90026774 </v>
    <v>       0.90077380       0.66027532       0.40026774 </v>
    <v>       0.90077380       0.66027532       0.90026774 </v>
    <v>       0.33972408       0.09986805       0.09983354 </v>
    <v>       0.33972408       0.09986805       0.59983354 </v>
    <v>       0.33972408       0.59986805       0.09983354 </v>
    <v>       0.33972408       0.59986805       0.59983354 </v>
    <v>       0.83972408       0.09986805       0.09983354 </v>
    <v>       0.83972408       0.09986805       0.59983354 </v>
    <v>       0.83972408       0.59986805       0.09983354 </v>
    <v>       0.83972408       0.59986805       0.59983354 </v>
    <v>       0.09913632       0.09969407       0.33946534 </v>
    <v>       0.09913632       0.09969407       0.83946534 </v>
    <v>       0.09913632       0.59969407       0.33946534 </v>
    <v>       0.09913632       0.59969407       0.83946534 </v>
    <v>       0.59913632       0.09969407       0.33946534 </v>
    <v>       0.59913632       0.09969407       0.83946534 </v>
    <v>       0.59913632       0.59969407       0.33946534 </v>
    <v>       0.59913632       0.59969407       0.83946534 </v>
    <v>       0.09922620       0.33972468       0.09973226 </v>
    <v>       0.09922620       0.33972468       0.59973226 </v>
    <v>       0.09922620       0.83972468       0.09973226 </v>
    <v>       0.09922620       0.83972468       0.59973226 </v>
    <v>       0.59922620       0.33972468       0.09973226 </v>
    <v>       0.59922620       0.33972468       0.59973226 </v>
    <v>       0.59922620       0.83972468       0.09973226 </v>
    <v>       0.59922620       0.83972468       0.59973226 </v>
    <v>       0.33186734       0.00031295       0.00014396 </v>
    <v>       0.33186734       0.00031295       0.50014396 </v>
    <v>       0.33186734       0.50031295       0.00014396 </v>
    <v>       0.33186734       0.50031295       0.50014396 </v>
    <v>       0.83186734       0.00031295       0.00014396 </v>
    <v>       0.83186734       0.00031295       0.50014396 </v>
    <v>       0.83186734       0.50031295       0.00014396 </v>
    <v>       0.83186734       0.50031295       0.50014396 </v>
    <v>       0.00033346       0.00008737       0.33269075 </v>
    <v>       0.00033346       0.00008737       0.83269075 </v>
    <v>       0.00033346       0.50008737       0.33269075 </v>
    <v>       0.00033346       0.50008737       0.83269075 </v>
    <v>       0.50033346       0.00008737       0.33269075 </v>
    <v>       0.50033346       0.00008737       0.83269075 </v>
    <v>       0.50033346       0.50008737       0.33269075 </v>
    <v>       0.50033346       0.50008737       0.83269075 </v>
    <v>       0.00042535       0.33255617       0.00003037 </v>
    <v>       0.00042535       0.33255617       0.50003037 </v>
    <v>       0.00042535       0.83255617       0.00003037 </v>
    <v>       0.00042535       0.83255617       0.50003037 </v>
    <v>       0.50042535       0.33255617       0.00003037 </v>
    <v>       0.50042535       0.33255617       0.50003037 </v>
    <v>       0.50042535       0.83255617       0.00003037 </v>
    <v>       0.50042535       0.83255617       0.50003037 </v>
    <v>       0.16813266       0.99968705       0.99985604 </v>
    <v>       0.16813266       0.99968705       0.49985604 </v>
    <v>       0.16813266       0.49968705       0.99985604 </v>
    <v>       0.16813266       0.49968705       0.49985604 </v>
    <v>       0.66813266       0.99968705       0.99985604 </v>
    <v>       0.66813266       0.99968705       0.49985604 </v>
    <v>       0.66813266       0.49968705       0.99985604 </v>
    <v>       0.66813266       0.49968705       0.49985604 </v>
    <v>       0.99966654       0.99991263       0.16730925 </v>
    <v>       0.99966654       0.99991263       0.66730925 </v>
    <v>       0.99966654       0.49991263       0.16730925 </v>
    <v>       0.99966654       0.49991263       0.66730925 </v>
    <v>       0.49966654       0.99991263       0.16730925 </v>
    <v>       0.49966654       0.99991263       0.66730925 </v>
    <v>       0.49966654       0.49991263       0.16730925 </v>
    <v>       0.49966654       0.49991263       0.66730925 </v>
    <v>       0.99957465       0.16744383       0.99996963 </v>
    <v>       0.99957465       0.16744383       0.49996963 </v>
    <v>       0.99957465       0.66744383       0.99996963 </v>
    <v>       0.99957465       0.66744383       0.49996963 </v>
    <v>       0.49957465       0.16744383       0.99996963 </v>
    <v>       0.49957465       0.16744383       0.49996963 </v>
    <v>       0.49957465       0.66744383       0.99996963 </v>
    <v>       0.49957465       0.66744383       0.49996963 </v>
    <v>       0.31513196       0.31584846       0.31541339 </v>
    <v>       0.31513196       0.31584846       0.81541339 </v>
    <v>       0.31513196       0.81584846       0.31541339 </v>
    <v>       0.31513196       0.81584846       0.81541339 </v>
    <v>       0.81513196       0.31584846       0.31541339 </v>
    <v>       0.81513196       0.31584846       0.81541339 </v>
    <v>       0.81513196       0.81584846       0.31541339 </v>
    <v>       0.81513196       0.81584846       0.81541339 </v>
    <v>       0.18486804       0.18415154       0.18458661 </v>
    <v>       0.18486804       0.18415154       0.68458661 </v>
    <v>       0.18486804       0.68415154       0.18458661 </v>
    <v>       0.18486804       0.68415154       0.68458661 </v>
    <v>       0.68486804       0.18415154       0.18458661 </v>
    <v>       0.68486804       0.18415154       0.68458661 </v>
    <v>       0.68486804       0.68415154       0.18458661 </v>
    <v>       0.68486804       0.68415154       0.68458661 </v>
   </varray>
  </structure>
  <varray name="forces" >
   <v>      -0.05964250       0.12507828       0.13502366 </v>
   <v>      -0.05964250       0.12507828       0.13502366 </v>
   <v>      -0.05964250       0.12507828       0.13502366 </v>
   <v>      -0.05964250       0.12507828       0.13502366 </v>
   <v>      -0.05964250       0.12507828       0.13502366 </v>
   <v>      -0.05964250       0.12507828       0.13502366 </v>
   <v>      -0.05964250       0.12507828       0.13502366 </v>
   <v>      -0.05964250       0.12507828       0.13502366 </v>
   <v>      -0.03447272       0.09402276      -0.04541385 </v>
   <v>      -0.03447272       0.09402276      -0.04541385 </v>
   <v>      -0.03447272       0.09402276      -0.04541385 </v>
   <v>      -0.03447272       0.09402276      -0.04541385 </v>
   <v>      -0.03447272       0.09402276      -0.04541385 </v>
   <v>      -0.03447272       0.09402276      -0.04541385 </v>
   <v>      -0.03447272       0.09402276      -0.04541385 </v>
   <v>      -0.03447272       0.09402276      -0.04541385 </v>
   <v>      -0.07429218       0.08964057       0.03705290 </v>
   <v>      -0.07429218       0.08964057       0.03705290 </v>
   <v>      -0.07429218       0.08964057       0.03705290 </v>
   <v>      -0.07429218       0.08964057       0.03705290 </v>
   <v>      -0.07429218       0.08964057       0.03705290 </v>
   <v>      -0.07429218       0.08964057       0.03705290 </v>
   <v>      -0.07429218       0.08964057       0.03705290 </v>
   <v>      -0.07429218       0.08964057       0.03705290 </v>
   <v>       0.05964250      -0.12507828      -0.13502366 </v>
   <v>       0.05964250      -0.12507828      -0.13502366 </v>
   <v>       0.05964250      -0.12507828      -0.13502366 </v>
   <v>       0.05964250      -0.12507828      -0.13502366 </v>
   <v>       0.05964250      -0.12507828      -0.13502366 </v>
   <v>       0.05964250      -0.12507828      -0.13502366 </v>
   <v>       0.05964250      -0.12507828      -0.13502366 </v>
   <v>       0.05964250      -0.12507828      -0.13502366 </v>
   <v>       0.03447272      -0.09402276       0.04541385 </v>
   <v>       0.03447272      -0.09402276       0.04541385 </v>
   <v>       0.03447272      -0.09402276       0.04541385 </v>
   <v>       0.03447272      -0.09402276       0.04541385 </v>
   <v>       0.03447272      -0.09402276       0.04541385 </v>
   <v>       0.03447272      -0.09402276       0.04541385 </v>
   <v>       0.03447272      -0.09402276       0.04541385 </v>
   <v>       0.03447272      -0.09402276       0.04541385 </v>
   <v>       0.07429218      -0.08964057      -0.03705290 </v>
   <v>       0.07429218      -0.08964057      -0.03705290 </v>
   <v>       0.07429218      -0.08964057      -0.03705290 </v>
   <v>       0.07429218      -0.08964057      -0.03705290 </v>
   <v>       0.07429218      -0.08964057      -0.03705290 </v>
   <v>       0.07429218      -0.08964057      -0.03705290 </v>
   <v>       0.07429218      -0.08964057      -0.03705290 </v>
   <v>       0.07429218      -0.08964057      -0.03705290 </v>
   <v>       0.06495256       0.04454647       0.12929492 </v>
   <v>       0.06495256       0.04454647       0.12929492 </v>
   <v>       0.06495256       0.04454647       0.12929492 </v>
   <v>       0.06495256       0.04454647       0.12929492 </v>
   <v>       0.06495256       0.04454647       0.12929492 </v>
   <v>       0.06495256       0.04454647       0.12929492 </v>
   <v>       0.06495256       0.04454647       0.12929492 </v>
   <v>       0.06495256       0.04454647       0.12929492 </v>
   <v>       0.00490844       0.04254276      -0.13469320 </v>
   <v>       0.00490844       0.04254276      -0.13469320 </v>
   <v>       0.00490844       0.04254276      -0.13469320 </v>
   <v>       0.00490844       0.04254276      -0.13469320 </v>
   <v>       0.00490844       0.04254276      -0.13469320 </v>
   <v>       0.00490844       0.04254276      -0.13469320 </v>
   <v>       0.00490844       0.04254276      -0.13469320 </v>
   <v>       0.00490844       0.04254276      -0.13469320 </v>
   <v>      -0.04292982      -0.10371773       0.02090972 </v>
   <v>      -0.04292982      -0.10371773       0.02090972 </v>
   <v>      -0.04292982      -0.10371773       0.02090972 </v>
   <v>      -0.04292982      -0.10371773       0.02090972 </v>
   <v>      -0.04292982      -0.10371773       0.02090972 </v>
   <v>      -0.04292982      -0.10371773       0.02090972 </v>
   <v>      -0.04292982      -0.10371773       0.02090972 </v>
   <v>      -0.04292982      -0.10371773       0.02090972 </v>
   <v>      -0.06495256      -0.04454647      -0.12929492 </v>
   <v>      -0.06495256      -0.04454647      -0.12929492 </v>
   <v>      -0.06495256      -0.04454647      -0.12929492 </v>
   <v>      -0.06495256      -0.04454647      -0.12929492 </v>
   <v>      -0.06495256      -0.04454647      -0.12929492 </v>
   <v>      -0.06495256      -0.04454647      -0.12929492 </v>
   <v>      -0.06495256      -0.04454647      -0.12929492 </v>
   <v>      -0.06495256      -0.04454647      -0.12929492 </v>
   <v>      -0.00490844      -0.04254276       0.13469320 </v>
   <v>      -0.00490844      -0.04254276       0.13469320 </v>
   <v>      -0.00490844      -0.04254276       0.13469320 </v>
   <v>      -0.00490844      -0.04254276       0.13469320 </v>
   <v>      -0.00490844      -0.04254276       0.13469320 </v>
   <v>      -0.00490844      -0.04254276       0.13469320 </v>
   <v>      -0.00490844      -0.04254276       0.13469320 </v>
   <v>      -0.00490844      -0.04254276       0.13469320 </v>
   <v>       0.04292982       0.10371773      -0.02090972 </v>
   <v>       0.04292982       0.10371773      -0.02090972 </v>
   <v>       0.04292982       0.10371773      -0.02090972 </v>
   <v>       0.04292982       0.10371773      -0.02090972 </v>
   <v>       0.04292982       0.10371773      -0.02090972 </v>
   <v>       0.04292982       0.10371773      -0.02090972 </v>
   <v>       0.04292982       0.10371773      -0.02090972 </v>
   <v>       0.04292982       0.10371773      -0.02090972 </v>
   <v>       0.11244232      -0.16661595       0.01299940 </v>
   <v>       0.11244232      -0.16661595       0.01299940 </v>
   <v>       0.11244232      -0.16661595       0.01299940 </v>
   <v>       0.11244232      -0.16661595       0.01299940 </v>
   <v>       0.11244232      -0.16661595       0.01299940 </v>
   <v>       0.11244232      -0.16661595       0.01299940 </v>
   <v>       0.11244232      -0.16661595       0.01299940 </v>
   <v>       0.11244232      -0.16661595       0.01299940 </v>
   <v>      -0.11244232       0.16661595      -0.01299940 </v>
   <v>      -0.11244232       0.16661595      -0.01299940 </v>
   <v>      -0.11244232       0.16661595      -0.01299940 </v>
   <v>      -0.11244232       0.16661595      -0.01299940 </v>
   <v>      -0.11244232       0.16661595      -0.01299940 </v>
   <v>      -0.11244232       0.16661595      -0.01299940 </v>
   <v>      -0.11244232       0.16661595      -0.01299940 </v>
   <v>      -0.11244232       0.16661595      -0.01299940 </v>
  </varray>
  <varray name="stress" >
   <v>      -9.33531208      -1.50021559      -2.86947990 </v>
   <v>      -1.50021558     -20.95614295       0.31370819 </v>
   <v>      -2.86947992       0.31370819     -20.41454684 </v>
  </varray>
  <energy>
   <i name="e_fr_energy">   -793.98243614 </i>
   <i name="e_wo_entrp">   -793.98243614 </i>
   <i name="e_0_energy">   -793.98243614 </i>
  </energy>
  <time name="totalsc">  115.66  115.45</time>
 </calculation>
 <calculation>
  <scstep>
   <time name="dav">    6.41    6.41</time>
   <time name="total">    8.42    8.42</time>
   <energy>
    <i name="alphaZ">   1012.26277164 </i>
    <i name="ewald">  -9958.54327176 </i>
    <i name="hartreedc">  -1489.69840467 </i>
    <i name="XCdc">    926.01779149 </i>
    <i name="pawpsdc">  32145.44453164 </i>
    <i name="pawaedc"> -32081.96299147 </i>
    <i name="eentropy">      0.00000000 </i>
    <i name="bandstr">   -534.27631522 </i>
    <i name="atom">   9186.75495500 </i>
    <i name="e_fr_energy">   -794.00093334 </i>
    <i name="e_wo_entrp">   -794.00093334 </i>
    <i name="e_0_energy">   -794.00093334 </i>
   </energy>
  </scstep>
  <scstep>
   <time name="diag">    1.32    1.32</time>
   <time name="diis">    5.57    5.55</time>
   <time name="orth">    0.04    0.04</time>
   <time name="total">    8.95    8.93</time>
   <energy>
    <i name="e_fr_energy">   -794.00139167 </i>
    <i name="e_wo_entrp">   -794.00139167 </i>
    <i name="e_0_energy">   -794.00139167 </i>
   </energy>
  </scstep>
  <scstep>
   <time name="diag">    1.33    1.33</time>
   <time name="diis">    5.61    5.58</time>
   <time name="orth">    0.04    0.04</time>
   <time name="total">    8.99    8.97</time>
   <energy>
    <i name="e_fr_energy">   -793.99968524 </i>
    <i name="e_wo_entrp">   -793.99968524 </i>
    <i name="e_0_energy">   -793.99968524 </i>
   </energy>
  </scstep>
  <scstep>
   <time name="diag">    1.32    1.32</time>
   <time name="diis">    5.60    5.58</time>
   <time name="orth">    0.04    0.04</time>
   <time name="total">    8.98    8.96</time>
   <energy>
    <i name="e_fr_energy">   -793.99976016 </i>
    <i name="e_wo_entrp">   -793.99976016 </i>
    <i name="e_0_energy">   -793.99976016 </i>
   </energy>
  </scstep>
  <scstep>
   <time name="diag">    1.32    1.32</time>
   <time name="diis">    5.68    5.65</time>
   <time name="orth">    0.04    0.04</time>
   <time name="total">    9.07    9.05</time>
   <energy>
    <i name="e_fr_energy">   -793.99962826 </i>
    <i name="e_wo_entrp">   -793.99962826 </i>
    <i name="e_0_energy">   -793.99962826 </i>
   </energy>
  </scstep>
  <scstep>
   <time name="diag">    1.32    1.33</time>
   <time name="diis">    5.66    5.63</time>
   <time name="orth">    0.04    0.04</time>
   <time name="total">    9.05    9.02</time>
   <energy>
    <i name="e_fr_energy">   -793.99960474 </i>
    <i name="e_wo_entrp">   -793.99960474 </i>
    <i name="e_0_energy">   -793.99960474 </i>
   </energy>
  </scstep>
  <scstep>
   <time name="diag">    1.32    1.32</time>
   <time name="diis">    5.35    5.32</time>
   <time name="orth">    0.04    0.04</time>
   <time name="total">    8.73    8.70</time>
   <energy>
    <i name="e_fr_energy">   -793.99957854 </i>
    <i name="e_wo_entrp">   -793.99957854 </i>
    <i name="e_0_energy">   -793.99957854 </i>
   </energy>
  </scstep>
  <scstep>
   <time name="diag">    1.32    1.32</time>
   <time name="diis">    3.81    3.80</time>
   <time name="orth">    0.04    0.04</time>
   <time name="total">    7.19    7.18</time>
   <energy>
    <i name="e_fr_energy">   -793.99957330 </i>
    <i name="e_wo_entrp">   -793.99957330 </i>
    <i name="e_0_energy">   -793.99957330 </i>
   </energy>
  </scstep>
  <scstep>
   <time name="diag">    1.32    1.32</time>
   <time name="diis">    3.57    3.56</time>
   <time name="orth">    0.04    0.04</time>
   <time name="total">    6.96    6.96</time>
   <energy>
[...]
       <r>    -7.5547     8.1481    39.1992 </r>
       <r>    -7.4709     4.0609    39.6995 </r>
       <r>    -7.3870     1.5686    39.9252 </r>
       <r>    -7.3032    22.1465    40.5541 </r>
       <r>    -7.2194    29.2965    42.9998 </r>
       <r>    -7.1355    18.8481    44.2932 </r>
       <r>    -7.0517    15.3051    46.5925 </r>
       <r>    -6.9679     7.3384    47.5206 </r>
       <r>    -6.8840     2.3717    47.9067 </r>
       <r>    -6.8002     0.2032    47.9976 </r>
       <r>    -6.7164     0.0000    48.0000 </r>
       <r>    -6.6326     0.0000    48.0000 </r>
       <r>    -6.5487    16.0723    48.7974 </r>
       <r>    -6.4649    18.2683    50.2762 </r>
       <r>    -6.3811    20.6964    51.8931 </r>
       <r>    -6.2972    82.2750    54.0087 </r>
       <r>    -6.2134     8.2358    56.1737 </r>
       <r>    -6.1296    19.9104    57.5322 </r>
       <r>    -6.0457    21.2794    59.2837 </r>
       <r>    -5.9619    72.5687    62.6633 </r>
       <r>    -5.8781    19.3550    65.2048 </r>
       <r>    -5.7943    28.3019    67.3241 </r>
       <r>    -5.7104    20.9122    69.4962 </r>
       <r>    -5.6266    22.5719    71.0531 </r>
       <r>    -5.5428    32.0303    73.4237 </r>
       <r>    -5.4589   344.9994    76.8301 </r>
       <r>    -5.3751    15.0844    78.0995 </r>
       <r>    -5.2913    22.6979    79.6701 </r>
       <r>    -5.2075    18.3643    81.3845 </r>
       <r>    -5.1236    10.5935    82.0043 </r>
       <r>    -5.0398    16.3039    83.3313 </r>
       <r>    -4.9560     4.2751    84.0207 </r>
       <r>    -4.8721    15.0313    85.1590 </r>
       <r>    -4.7883    22.9007    86.0565 </r>
       <r>    -4.7045    27.7597    89.3953 </r>
       <r>    -4.6206    20.6302    91.2964 </r>
       <r>    -4.5368    16.6895    92.8604 </r>
       <r>    -4.4530    12.7856    94.0956 </r>
       <r>    -4.3692     8.9184    95.0050 </r>
       <r>    -4.2853     5.0880    95.5918 </r>
       <r>    -4.2015     1.9479    95.8677 </r>
       <r>    -4.1177     0.6746    95.9730 </r>
       <r>    -4.0338     0.0610    95.9993 </r>
       <r>    -3.9500     0.0000    96.0000 </r>
       <r>    -3.8662     0.1616    96.0028 </r>
       <r>    -3.7823     1.0808    96.0492 </r>
       <r>    -3.6985     3.7005    96.2204 </r>
       <r>    -3.6147     8.4561    96.7276 </r>
       <r>    -3.5309    13.5397    97.6473 </r>
       <r>    -3.4470    18.9515    99.0069 </r>
       <r>    -3.3632    29.8748   100.8893 </r>
       <r>    -3.2794    25.4484   103.5762 </r>
       <r>    -3.1955    11.1181   104.8842 </r>
       <r>    -3.1117     7.7345   105.5485 </r>
       <r>    -3.0279    26.7756   107.3837 </r>
       <r>    -2.9440    24.5335   109.1129 </r>
       <r>    -2.8602    25.1967   111.2232 </r>
       <r>    -2.7764    25.1234   113.2960 </r>
       <r>    -2.6926    26.9058   115.5198 </r>
       <r>    -2.6087    24.1135   117.6666 </r>
       <r>    -2.5249    11.3507   119.1266 </r>
       <r>    -2.4411    28.9609   121.0857 </r>
       <r>    -2.3572    37.3741   123.9801 </r>
       <r>    -2.2734    17.7391   125.7822 </r>
       <r>    -2.1896    31.6247   127.5148 </r>
       <r>    -2.1057    46.6868   131.0656 </r>
       <r>    -2.0219    45.3233   133.8009 </r>
       <r>    -1.9381    53.8611   138.8098 </r>
       <r>    -1.8543    42.4094   142.5564 </r>
       <r>    -1.7704    39.2378   146.0047 </r>
       <r>    -1.6866     6.8324   147.7666 </r>
       <r>    -1.6028    11.5201   148.2414 </r>
       <r>    -1.5189    38.1169   150.5325 </r>
       <r>    -1.4351    39.1356   153.8950 </r>
       <r>    -1.3513    23.2122   156.5972 </r>
       <r>    -1.2674    30.8543   159.4044 </r>
       <r>    -1.1836    17.6826   160.9403 </r>
       <r>    -1.0998    20.8821   162.3307 </r>
       <r>    -1.0160    50.9241   166.1045 </r>
       <r>    -0.9321    44.9908   170.1717 </r>
       <r>    -0.8483    35.0942   173.5535 </r>
       <r>    -0.7645    69.8115   176.5011 </r>
       <r>    -0.6806    13.9788   179.5555 </r>
       <r>    -0.5968     5.1437   180.2009 </r>
       <r>    -0.5130    11.2113   180.8582 </r>
       <r>    -0.4292    15.2834   181.9853 </r>
       <r>    -0.3453    17.5836   183.3736 </r>
       <r>    -0.2615    19.4647   184.9321 </r>
       <r>    -0.1777    20.4122   186.6102 </r>
       <r>    -0.0938    18.7231   188.7020 </r>
       <r>    -0.0100    10.6954   189.4294 </r>
       <r>     0.0738    15.4180   190.5182 </r>
       <r>     0.1577    32.5646   192.5064 </r>
       <r>     0.2415    31.4831   195.1270 </r>
       <r>     0.3253   115.1559   198.9628 </r>
       <r>     0.4091    77.5689   205.3270 </r>
       <r>     0.4930    56.6206   211.4844 </r>
       <r>     0.5768    34.5048   214.2702 </r>
       <r>     0.6606    28.7540   216.4700 </r>
       <r>     0.7445    28.7514   218.9162 </r>
       <r>     0.8283    24.8816   221.1708 </r>
       <r>     0.9121    54.2804   223.6540 </r>
       <r>     0.9960    51.9702   227.3490 </r>
       <r>     1.0798    80.0920   231.9709 </r>
       <r>     1.1636    11.9289   236.0000 </r>
       <r>     1.2474   158.6937   242.5214 </r>
       <r>     1.3313    97.6124   248.3501 </r>
       <r>     1.4151    26.2621   251.9317 </r>
       <r>     1.4989    20.0419   253.8394 </r>
       <r>     1.5828    18.4946   255.4367 </r>
       <r>     1.6666    17.1042   256.9325 </r>
       <r>     1.7504    14.9318   258.2838 </r>
       <r>     1.8343    11.4933   259.4003 </r>
       <r>     1.9181    13.3282   260.1549 </r>
       <r>     2.0019   127.0480   265.3749 </r>
       <r>     2.0857    86.2112   273.5271 </r>
       <r>     2.1696   115.8454   280.8930 </r>
       <r>     2.2534    39.2834   286.9480 </r>
       <r>     2.3372    56.7310   291.4311 </r>
       <r>     2.4211    24.6173   294.9827 </r>
       <r>     2.5049    33.5851   298.4472 </r>
       <r>     2.5887    52.0651   300.5886 </r>
       <r>     2.6726    76.0518   306.6508 </r>
       <r>     2.7564   111.9151   314.4411 </r>
       <r>     2.8402    53.5254   318.3996 </r>
       <r>     2.9240    46.7823   322.8571 </r>
       <r>     3.0079    25.9344   325.9537 </r>
       <r>     3.0917    64.2553   329.5041 </r>
       <r>     3.1755     9.1210   331.7209 </r>
       <r>     3.2594     1.6502   332.0150 </r>
       <r>     3.3432    18.8795   332.7664 </r>
       <r>     3.4270    45.8710   335.4384 </r>
       <r>     3.5109    47.4504   340.5780 </r>
       <r>     3.5947    27.4371   342.3691 </r>
       <r>     3.6785    32.8268   345.0057 </r>
       <r>     3.7623    24.5398   347.5026 </r>
       <r>     3.8462    14.7094   349.0367 </r>
       <r>     3.9300    39.2639   350.9494 </r>
       <r>     4.0138     1.7381   352.2264 </r>
       <r>     4.0977     2.5585   352.4055 </r>
       <r>     4.1815     3.5299   352.6596 </r>
       <r>     4.2653     4.6521   353.0015 </r>
       <r>     4.3492     5.9252   353.4438 </r>
       <r>     4.4330    15.1937   354.1704 </r>
       <r>     4.5168    12.0841   355.3649 </r>
       <r>     4.6006     1.6563   355.9919 </r>
       <r>     4.6845     0.0000   356.0000 </r>
       <r>     4.7683     0.0000   356.0000 </r>
       <r>     4.8521     0.0000   356.0000 </r>
       <r>     4.9360    37.7362   356.8765 </r>
       <r>     5.0198    45.9426   361.1766 </r>
       <r>     5.1036    34.6561   363.6749 </r>
       <r>     5.1874    27.8038   366.4325 </r>
       <r>     5.2713    11.9289   368.0000 </r>
       <r>     5.3551     0.0000   368.0000 </r>
       <r>     5.4389     1.1847   368.0243 </r>
       <r>     5.5228     8.6389   368.4075 </r>
       <r>     5.6066    13.8367   369.3779 </r>
       <r>     5.6904    14.9769   370.6139 </r>
       <r>     5.7743    12.0596   371.7755 </r>
       <r>     5.8581    27.3048   373.8153 </r>
       <r>     5.9419    19.7292   375.1923 </r>
       <r>     6.0257    22.0526   376.9895 </r>
       <r>     6.1096    23.7881   378.7207 </r>
       <r>     6.1934    27.8377   381.7950 </r>
       <r>     6.2772     8.2584   382.8167 </r>
       <r>     6.3611     5.3186   383.3783 </r>
       <r>     6.4449     3.0796   383.7261 </r>
       <r>     6.5287     1.4486   383.9116 </r>
       <r>     6.6126     0.4254   383.9859 </r>
       <r>     6.6964     0.0102   383.9999 </r>
       <r>     6.7802     0.0000   384.0000 </r>
       <r>     6.8640     0.0000   384.0000 </r>
       <r>     6.9479     0.0000   384.0000 </r>
       <r>     7.0317     0.0000   384.0000 </r>
       <r>     7.1155     0.0000   384.0000 </r>
       <r>     7.1994     0.0000   384.0000 </r>
       <r>     7.2832     0.0000   384.0000 </r>
       <r>     7.3670     0.0000   384.0000 </r>
       <r>     7.4509     0.0000   384.0000 </r>
       <r>     7.5347     0.0000   384.0000 </r>
       <r>     7.6185     0.0000   384.0000 </r>
       <r>     7.7023     0.0000   384.0000 </r>
       <r>     7.7862     0.0000   384.0000 </r>
       <r>     7.8700     0.1102   384.0020 </r>
       <r>     7.9538     0.7102   384.0327 </r>
       <r>     8.0377     1.8324   384.1357 </r>
       <r>     8.1215     3.4767   384.3545 </r>
       <r>     8.2053     5.6431   384.7332 </r>
       <r>     8.2892    10.6793   385.3504 </r>
       <r>     8.3730    13.4547   386.4382 </r>
       <r>     8.4568     7.2115   387.3138 </r>
       <r>     8.5406    12.4802   387.9373 </r>
       <r>     8.6245    27.9592   389.7895 </r>
       <r>     8.7083    26.1635   392.1067 </r>
       <r>     8.7921    21.1489   394.0709 </r>
       <r>     8.8760    24.3353   396.0093 </r>
       <r>     8.9598    19.6346   397.8748 </r>
       <r>     9.0436    12.1313   399.2205 </r>
       <r>     9.1275    10.4030   400.1076 </r>
       <r>     9.2113    15.0400   401.1332 </r>
       <r>     9.2951    25.5221   402.7925 </r>
       <r>     9.3789    69.2889   407.6388 </r>
       <r>     9.4628    12.7785   409.5657 </r>
       <r>     9.5466    15.9452   410.7744 </r>
       <r>     9.6304    17.3104   412.1929 </r>
       <r>     9.7143    15.0312   413.5742 </r>
       <r>     9.7981    38.0409   415.0219 </r>
       <r>     9.8819    23.0207   416.6221 </r>
       <r>     9.9658    64.7778   420.0660 </r>
       <r>    10.0496    38.4702   424.5142 </r>
       <r>    10.1334    32.7671   427.6034 </r>
       <r>    10.2172    21.1981   429.6335 </r>
       <r>    10.3011    26.1806   432.3027 </r>
       <r>    10.3849     8.0762   433.1148 </r>
       <r>    10.4687    11.1690   433.9167 </r>
       <r>    10.5526    13.4944   434.9628 </r>
       <r>    10.6364    15.0767   436.1630 </r>
       <r>    10.7202    16.2792   437.4800 </r>
       <r>    10.8040    17.1022   438.8818 </r>
       <r>    10.8879    17.5455   440.3367 </r>
       <r>    10.9717    17.6092   441.8129 </r>
       <r>    11.0555    17.2933   443.2785 </r>
       <r>    11.1394    15.1420   444.6843 </r>
       <r>    11.2232    17.9182   446.7716 </r>
       <r>    11.3070    28.6461   448.0991 </r>
       <r>    11.3909    37.6141   451.7881 </r>
       <r>    11.4747    21.9231   453.7520 </r>
       <r>    11.5585    21.5053   455.5514 </r>
       <r>    11.6423    21.8516   457.3807 </r>
       <r>    11.7262    11.7344   458.6410 </r>
       <r>    11.8100    10.1271   459.5733 </r>
       <r>    11.8938    47.5563   461.6953 </r>
       <r>    11.9777    10.8953   464.1519 </r>
       <r>    12.0615    14.2779   465.7932 </r>
       <r>    12.1453     0.0000   466.0000 </r>
       <r>    12.2292     0.0000   466.0000 </r>
       <r>    12.3130     0.0000   466.0000 </r>
       <r>    12.3968     0.0000   466.0000 </r>
       <r>    12.4806     0.0000   466.0000 </r>
       <r>    12.5645     0.0000   466.0000 </r>
       <r>    12.6483     0.0000   466.0000 </r>
       <r>    12.7321     0.0000   466.0000 </r>
       <r>    12.8160     0.0000   466.0000 </r>
       <r>    12.8998     0.0000   466.0000 </r>
       <r>    12.9836     0.0000   466.0000 </r>
       <r>    13.0675     0.0000   466.0000 </r>
       <r>    13.1513     0.0000   466.0000 </r>
       <r>    13.2351     0.0000   466.0000 </r>
      </set>
     </set>
    </array>
   </total>
  </dos>
 </calculation>
 <structure name="finalpos" >
  <crystal>
   <varray name="basis" >
    <v>       9.46519918       0.08990241       4.34935163 </v>
    <v>       2.82494765       9.03016997       4.34729585 </v>
    <v>       0.12254028       0.08882501      10.40984861 </v>
   </varray>
   <i name="volume">    879.78198318 </i>
   <varray name="rec_basis" >
    <v>       0.10640881      -0.03282013      -0.00097255 </v>
    <v>      -0.00062463       0.11138932      -0.00094311 </v>
    <v>      -0.04419794      -0.03280509       0.09686307 </v>
   </varray>
  </crystal>
  <varray name="positions" >
   <v>       0.16030870       0.40053445       0.40052660 </v>
   <v>       0.16030870       0.40053445       0.90052660 </v>
   <v>       0.16030870       0.90053445       0.40052660 </v>
   <v>       0.16030870       0.90053445       0.90052660 </v>
   <v>       0.66030870       0.40053445       0.40052660 </v>
   <v>       0.66030870       0.40053445       0.90052660 </v>
   <v>       0.66030870       0.90053445       0.40052660 </v>
   <v>       0.66030870       0.90053445       0.90052660 </v>
   <v>       0.40056482       0.40056315       0.16037600 </v>
   <v>       0.40056482       0.40056315       0.66037600 </v>
   <v>       0.40056482       0.90056315       0.16037600 </v>
   <v>       0.40056482       0.90056315       0.66037600 </v>
   <v>       0.90056482       0.40056315       0.16037600 </v>
   <v>       0.90056482       0.40056315       0.66037600 </v>
   <v>       0.90056482       0.90056315       0.16037600 </v>
   <v>       0.90056482       0.90056315       0.66037600 </v>
   <v>       0.40055992       0.16035526       0.40054901 </v>
   <v>       0.40055992       0.16035526       0.90054901 </v>
   <v>       0.40055992       0.66035526       0.40054901 </v>
   <v>       0.40055992       0.66035526       0.90054901 </v>
   <v>       0.90055992       0.16035526       0.40054901 </v>
   <v>       0.90055992       0.16035526       0.90054901 </v>
   <v>       0.90055992       0.66035526       0.40054901 </v>
   <v>       0.90055992       0.66035526       0.90054901 </v>
   <v>       0.33969130       0.09946555       0.09947340 </v>
   <v>       0.33969130       0.09946555       0.59947340 </v>
   <v>       0.33969130       0.59946555       0.09947340 </v>
   <v>       0.33969130       0.59946555       0.59947340 </v>
   <v>       0.83969130       0.09946555       0.09947340 </v>
   <v>       0.83969130       0.09946555       0.59947340 </v>
   <v>       0.83969130       0.59946555       0.09947340 </v>
   <v>       0.83969130       0.59946555       0.59947340 </v>
   <v>       0.09943518       0.09943685       0.33962400 </v>
   <v>       0.09943518       0.09943685       0.83962400 </v>
   <v>       0.09943518       0.59943685       0.33962400 </v>
   <v>       0.09943518       0.59943685       0.83962400 </v>
   <v>       0.59943518       0.09943685       0.33962400 </v>
   <v>       0.59943518       0.09943685       0.83962400 </v>
   <v>       0.59943518       0.59943685       0.33962400 </v>
   <v>       0.59943518       0.59943685       0.83962400 </v>
   <v>       0.09944008       0.33964474       0.09945099 </v>
   <v>       0.09944008       0.33964474       0.59945099 </v>
   <v>       0.09944008       0.83964474       0.09945099 </v>
   <v>       0.09944008       0.83964474       0.59945099 </v>
   <v>       0.59944008       0.33964474       0.09945099 </v>
   <v>       0.59944008       0.33964474       0.59945099 </v>
   <v>       0.59944008       0.83964474       0.09945099 </v>
   <v>       0.59944008       0.83964474       0.59945099 </v>
   <v>       0.33195273       0.00049667       0.00050112 </v>
   <v>       0.33195273       0.00049667       0.50050112 </v>
   <v>       0.33195273       0.50049667       0.00050112 </v>
   <v>       0.33195273       0.50049667       0.50050112 </v>
   <v>       0.83195273       0.00049667       0.00050112 </v>
   <v>       0.83195273       0.00049667       0.50050112 </v>
   <v>       0.83195273       0.50049667       0.00050112 </v>
   <v>       0.83195273       0.50049667       0.50050112 </v>
   <v>       0.00039198       0.00041299       0.33212046 </v>
   <v>       0.00039198       0.00041299       0.83212046 </v>
   <v>       0.00039198       0.50041299       0.33212046 </v>
   <v>       0.00039198       0.50041299       0.83212046 </v>
   <v>       0.50039198       0.00041299       0.33212046 </v>
   <v>       0.50039198       0.00041299       0.83212046 </v>
   <v>       0.50039198       0.50041299       0.33212046 </v>
   <v>       0.50039198       0.50041299       0.83212046 </v>
   <v>       0.00041606       0.33207450       0.00044092 </v>
   <v>       0.00041606       0.33207450       0.50044092 </v>
   <v>       0.00041606       0.83207450       0.00044092 </v>
   <v>       0.00041606       0.83207450       0.50044092 </v>
   <v>       0.50041606       0.33207450       0.00044092 </v>
   <v>       0.50041606       0.33207450       0.50044092 </v>
   <v>       0.50041606       0.83207450       0.00044092 </v>
   <v>       0.50041606       0.83207450       0.50044092 </v>
   <v>       0.16804727       0.99950333       0.99949888 </v>
   <v>       0.16804727       0.99950333       0.49949888 </v>
   <v>       0.16804727       0.49950333       0.99949888 </v>
   <v>       0.16804727       0.49950333       0.49949888 </v>
   <v>       0.66804727       0.99950333       0.99949888 </v>
   <v>       0.66804727       0.99950333       0.49949888 </v>
   <v>       0.66804727       0.49950333       0.99949888 </v>
   <v>       0.66804727       0.49950333       0.49949888 </v>
   <v>       0.99960802       0.99958701       0.16787954 </v>
   <v>       0.99960802       0.99958701       0.66787954 </v>
   <v>       0.99960802       0.49958701       0.16787954 </v>
   <v>       0.99960802       0.49958701       0.66787954 </v>
   <v>       0.49960802       0.99958701       0.16787954 </v>
   <v>       0.49960802       0.99958701       0.66787954 </v>
   <v>       0.49960802       0.49958701       0.16787954 </v>
   <v>       0.49960802       0.49958701       0.66787954 </v>
   <v>       0.99958394       0.16792550       0.99955908 </v>
   <v>       0.99958394       0.16792550       0.49955908 </v>
   <v>       0.99958394       0.66792550       0.99955908 </v>
   <v>       0.99958394       0.66792550       0.49955908 </v>
   <v>       0.49958394       0.16792550       0.99955908 </v>
   <v>       0.49958394       0.16792550       0.49955908 </v>
   <v>       0.49958394       0.66792550       0.99955908 </v>
   <v>       0.49958394       0.66792550       0.49955908 </v>
   <v>       0.31559153       0.31558776       0.31560048 </v>
   <v>       0.31559153       0.31558776       0.81560048 </v>
   <v>       0.31559153       0.81558776       0.31560048 </v>
   <v>       0.31559153       0.81558776       0.81560048 </v>
   <v>       0.81559153       0.31558776       0.31560048 </v>
   <v>       0.81559153       0.31558776       0.81560048 </v>
   <v>       0.81559153       0.81558776       0.31560048 </v>
   <v>       0.81559153       0.81558776       0.81560048 </v>
   <v>       0.18440847       0.18441224       0.18439952 </v>
   <v>       0.18440847       0.18441224       0.68439952 </v>
   <v>       0.18440847       0.68441224       0.18439952 </v>
   <v>       0.18440847       0.68441224       0.68439952 </v>
   <v>       0.68440847       0.18441224       0.18439952 </v>
   <v>       0.68440847       0.18441224       0.68439952 </v>
   <v>       0.68440847       0.68441224       0.18439952 </v>
   <v>       0.68440847       0.68441224       0.68439952 </v>
  </varray>
 </structure>
</modeling>
