unknown system                          
            1
     9.518747    0.072571    4.306976
     2.823800    9.000986    4.306977
     0.098716    0.072571   10.361971
   B    C 
    96    16
unknown system                          
            1
     9.518747    0.072571    4.306976
     2.823800    9.000986    4.306977
     0.098716    0.072571   10.361971
   B    C 
    96    16
Direct configuration=     1
   0.16039500  0.40051500  0.40051500
   0.16039500  0.40051500  0.90051500
   0.16039500  0.90051500  0.40051500
   0.16039500  0.90051500  0.90051500
   0.66039500  0.40051500  0.40051500
   0.66039500  0.40051500  0.90051500
   0.66039500  0.90051500  0.40051500
   0.66039500  0.90051500  0.90051500
   0.40051500  0.40051500  0.16039500
   0.40051500  0.40051500  0.66039500
   0.40051500  0.90051500  0.16039500
   0.40051500  0.90051500  0.66039500
   0.90051500  0.40051500  0.16039500
   0.90051500  0.40051500  0.66039500
   0.90051500  0.90051500  0.16039500
   0.90051500  0.90051500  0.66039500
   0.40051500  0.16039500  0.40051500
   0.40051500  0.16039500  0.90051500
   0.40051500  0.66039500  0.40051500
   0.40051500  0.66039500  0.90051500
   0.90051500  0.16039500  0.40051500
   0.90051500  0.16039500  0.90051500
   0.90051500  0.66039500  0.40051500
   0.90051500  0.66039500  0.90051500
   0.33960500  0.09948500  0.09948500
   0.33960500  0.09948500  0.59948500
   0.33960500  0.59948500  0.09948500
   0.33960500  0.59948500  0.59948500
   0.83960500  0.09948500  0.09948500
   0.83960500  0.09948500  0.59948500
   0.83960500  0.59948500  0.09948500
   0.83960500  0.59948500  0.59948500
   0.09948500  0.09948500  0.33960500
   0.09948500  0.09948500  0.83960500
   0.09948500  0.59948500  0.33960500
   0.09948500  0.59948500  0.83960500
   0.59948500  0.09948500  0.33960500
   0.59948500  0.09948500  0.83960500
   0.59948500  0.59948500  0.33960500
   0.59948500  0.59948500  0.83960500
   0.09948500  0.33960500  0.09948500
   0.09948500  0.33960500  0.59948500
   0.09948500  0.83960500  0.09948500
   0.09948500  0.83960500  0.59948500
   0.59948500  0.33960500  0.09948500
   0.59948500  0.33960500  0.59948500
   0.59948500  0.83960500  0.09948500
   0.59948500  0.83960500  0.59948500
   0.33229300  0.00011500  0.00011500
   0.33229300  0.00011500  0.50011500
   0.33229300  0.50011500  0.00011500
   0.33229300  0.50011500  0.50011500
   0.83229300  0.00011500  0.00011500
   0.83229300  0.00011500  0.50011500
   0.83229300  0.50011500  0.00011500
   0.83229300  0.50011500  0.50011500
   0.00011500  0.00011500  0.33229300
   0.00011500  0.00011500  0.83229300
   0.00011500  0.50011500  0.33229300
   0.00011500  0.50011500  0.83229300
   0.50011500  0.00011500  0.33229300
   0.50011500  0.00011500  0.83229300
   0.50011500  0.50011500  0.33229300
   0.50011500  0.50011500  0.83229300
   0.00011500  0.33229300  0.00011500
   0.00011500  0.33229300  0.50011500
   0.00011500  0.83229300  0.00011500
   0.00011500  0.83229300  0.50011500
   0.50011500  0.33229300  0.00011500
   0.50011500  0.33229300  0.50011500
   0.50011500  0.83229300  0.00011500
   0.50011500  0.83229300  0.50011500
   0.16770700  0.99988500  0.99988500
   0.16770700  0.99988500  0.49988500
   0.16770700  0.49988500  0.99988500
   0.16770700  0.49988500  0.49988500
   0.66770700  0.99988500  0.99988500
   0.66770700  0.99988500  0.49988500
   0.66770700  0.49988500  0.99988500
   0.66770700  0.49988500  0.49988500
   0.99988500  0.99988500  0.16770700
   0.99988500  0.99988500  0.66770700
   0.99988500  0.49988500  0.16770700
   0.99988500  0.49988500  0.66770700
   0.49988500  0.99988500  0.16770700
   0.49988500  0.99988500  0.66770700
   0.49988500  0.49988500  0.16770700
   0.49988500  0.49988500  0.66770700
   0.99988500  0.16770700  0.99988500
   0.99988500  0.16770700  0.49988500
   0.99988500  0.66770700  0.99988500
   0.99988500  0.66770700  0.49988500
   0.49988500  0.16770700  0.99988500
   0.49988500  0.16770700  0.49988500
   0.49988500  0.66770700  0.99988500
   0.49988500  0.66770700  0.49988500
   0.31539700  0.31539700  0.31539700
   0.31539700  0.31539700  0.81539700
   0.31539700  0.81539700  0.31539700
   0.31539700  0.81539700  0.81539700
   0.81539700  0.31539700  0.31539700
   0.81539700  0.31539700  0.81539700
   0.81539700  0.81539700  0.31539700
   0.81539700  0.81539700  0.81539700
   0.18460300  0.18460300  0.18460300
   0.18460300  0.18460300  0.68460300
   0.18460300  0.68460300  0.18460300
   0.18460300  0.68460300  0.68460300
   0.68460300  0.18460300  0.18460300
   0.68460300  0.18460300  0.68460300
   0.68460300  0.68460300  0.18460300
   0.68460300  0.68460300  0.68460300
unknown system                          
            1
     9.470457    0.088693    4.351707
     2.829902    9.031031    4.339747
     0.128427    0.081683   10.402935
   B    C 
    96    16
Direct configuration=     2
   0.16027592  0.40013195  0.40016646
   0.16027592  0.40013195  0.90016646
   0.16027592  0.90013195  0.40016646
   0.16027592  0.90013195  0.90016646
   0.66027592  0.40013195  0.40016646
   0.66027592  0.40013195  0.90016646
   0.66027592  0.90013195  0.40016646
   0.66027592  0.90013195  0.90016646
   0.40086368  0.40030593  0.16053466
   0.40086368  0.40030593  0.66053466
   0.40086368  0.90030593  0.16053466
   0.40086368  0.90030593  0.66053466
   0.90086368  0.40030593  0.16053466
   0.90086368  0.40030593  0.66053466
   0.90086368  0.90030593  0.16053466
   0.90086368  0.90030593  0.66053466
   0.40077380  0.16027532  0.40026774
   0.40077380  0.16027532  0.90026774
   0.40077380  0.66027532  0.40026774
   0.40077380  0.66027532  0.90026774
   0.90077380  0.16027532  0.40026774
   0.90077380  0.16027532  0.90026774
   0.90077380  0.66027532  0.40026774
   0.90077380  0.66027532  0.90026774
   0.33972408  0.09986805  0.09983354
   0.33972408  0.09986805  0.59983354
   0.33972408  0.59986805  0.09983354
   0.33972408  0.59986805  0.59983354
   0.83972408  0.09986805  0.09983354
   0.83972408  0.09986805  0.59983354
   0.83972408  0.59986805  0.09983354
   0.83972408  0.59986805  0.59983354
   0.09913632  0.09969407  0.33946534
   0.09913632  0.09969407  0.83946534
   0.09913632  0.59969407  0.33946534
   0.09913632  0.59969407  0.83946534
   0.59913632  0.09969407  0.33946534
   0.59913632  0.09969407  0.83946534
   0.59913632  0.59969407  0.33946534
   0.59913632  0.59969407  0.83946534
   0.09922620  0.33972468  0.09973226
   0.09922620  0.33972468  0.59973226
   0.09922620  0.83972468  0.09973226
   0.09922620  0.83972468  0.59973226
   0.59922620  0.33972468  0.09973226
   0.59922620  0.33972468  0.59973226
   0.59922620  0.83972468  0.09973226
   0.59922620  0.83972468  0.59973226
   0.33186734  0.00031295  0.00014396
   0.33186734  0.00031295  0.50014396
   0.33186734  0.50031295  0.00014396
   0.33186734  0.50031295  0.50014396
   0.83186734  0.00031295  0.00014396
   0.83186734  0.00031295  0.50014396
   0.83186734  0.50031295  0.00014396
   0.83186734  0.50031295  0.50014396
   0.00033346  0.00008737  0.33269075
   0.00033346  0.00008737  0.83269075
   0.00033346  0.50008737  0.33269075
   0.00033346  0.50008737  0.83269075
   0.50033346  0.00008737  0.33269075
   0.50033346  0.00008737  0.83269075
   0.50033346  0.50008737  0.33269075
   0.50033346  0.50008737  0.83269075
   0.00042535  0.33255617  0.00003037
   0.00042535  0.33255617  0.50003037
   0.00042535  0.83255617  0.00003037
   0.00042535  0.83255617  0.50003037
   0.50042535  0.33255617  0.00003037
   0.50042535  0.33255617  0.50003037
   0.50042535  0.83255617  0.00003037
   0.50042535  0.83255617  0.50003037
   0.16813266  0.99968705  0.99985604
   0.16813266  0.99968705  0.49985604
   0.16813266  0.49968705  0.99985604
   0.16813266  0.49968705  0.49985604
   0.66813266  0.99968705  0.99985604
   0.66813266  0.99968705  0.49985604
   0.66813266  0.49968705  0.99985604
   0.66813266  0.49968705  0.49985604
   0.99966654  0.99991263  0.16730925
   0.99966654  0.99991263  0.66730925
   0.99966654  0.49991263  0.16730925
   0.99966654  0.49991263  0.66730925
   0.49966654  0.99991263  0.16730925
   0.49966654  0.99991263  0.66730925
   0.49966654  0.49991263  0.16730925
   0.49966654  0.49991263  0.66730925
   0.99957465  0.16744383  0.99996963
   0.99957465  0.16744383  0.49996963
   0.99957465  0.66744383  0.99996963
   0.99957465  0.66744383  0.49996963
   0.49957465  0.16744383  0.99996963
   0.49957465  0.16744383  0.49996963
   0.49957465  0.66744383  0.99996963
   0.49957465  0.66744383  0.49996963
   0.31513196  0.31584846  0.31541339
   0.31513196  0.31584846  0.81541339
   0.31513196  0.81584846  0.31541339
   0.31513196  0.81584846  0.81541339
   0.81513196  0.31584846  0.31541339
   0.81513196  0.31584846  0.81541339
   0.81513196  0.81584846  0.31541339
   0.81513196  0.81584846  0.81541339
   0.18486804  0.18415154  0.18458661
   0.18486804  0.18415154  0.68458661
   0.18486804  0.68415154  0.18458661
   0.18486804  0.68415154  0.68458661
   0.68486804  0.18415154  0.18458661
   0.68486804  0.18415154  0.68458661
   0.68486804  0.68415154  0.18458661
   0.68486804  0.68415154  0.68458661
unknown system                          
            1
     9.485260    0.083741    4.337955
     2.828019    9.021776    4.329669
     0.119301    0.078884   10.390322
   B    C 
    96    16
Direct configuration=     3
   0.16031245  0.40024904  0.40027281
   0.16031245  0.40024904  0.90027281
   0.16031245  0.90024904  0.40027281
   0.16031245  0.90024904  0.90027281
   0.66031245  0.40024904  0.40027281
   0.66031245  0.40024904  0.90027281
   0.66031245  0.90024904  0.40027281
   0.66031245  0.90024904  0.90027281
   0.40075612  0.40037016  0.16049238
   0.40075612  0.40037016  0.66049238
   0.40075612  0.90037016  0.16049238
   0.40075612  0.90037016  0.66049238
   0.90075612  0.40037016  0.16049238
   0.90075612  0.40037016  0.66049238
   0.90075612  0.90037016  0.16049238
   0.90075612  0.90037016  0.66049238
   0.40069366  0.16031203  0.40034390
   0.40069366  0.16031203  0.90034390
   0.40069366  0.66031203  0.40034390
   0.40069366  0.66031203  0.90034390
   0.90069366  0.16031203  0.40034390
   0.90069366  0.16031203  0.90034390
   0.90069366  0.66031203  0.40034390
   0.90069366  0.66031203  0.90034390
   0.33968755  0.09975096  0.09972719
   0.33968755  0.09975096  0.59972719
   0.33968755  0.59975096  0.09972719
   0.33968755  0.59975096  0.59972719
   0.83968755  0.09975096  0.09972719
   0.83968755  0.09975096  0.59972719
   0.83968755  0.59975096  0.09972719
   0.83968755  0.59975096  0.59972719
   0.09924388  0.09962984  0.33950762
   0.09924388  0.09962984  0.83950762
   0.09924388  0.59962984  0.33950762
   0.09924388  0.59962984  0.83950762
   0.59924388  0.09962984  0.33950762
   0.59924388  0.09962984  0.83950762
   0.59924388  0.59962984  0.33950762
   0.59924388  0.59962984  0.83950762
   0.09930634  0.33968797  0.09965610
   0.09930634  0.33968797  0.59965610
   0.09930634  0.83968797  0.09965610
   0.09930634  0.83968797  0.59965610
   0.59930634  0.33968797  0.09965610
   0.59930634  0.33968797  0.59965610
   0.59930634  0.83968797  0.09965610
   0.59930634  0.83968797  0.59965610
   0.33199882  0.00025213  0.00013443
   0.33199882  0.00025213  0.50013443
   0.33199882  0.50025213  0.00013443
   0.33199882  0.50025213  0.50013443
   0.83199882  0.00025213  0.00013443
   0.83199882  0.00025213  0.50013443
   0.83199882  0.50025213  0.00013443
   0.83199882  0.50025213  0.50013443
   0.00026633  0.00009607  0.33256926
   0.00026633  0.00009607  0.83256926
   0.00026633  0.50009607  0.33256926
   0.00026633  0.50009607  0.83256926
   0.50026633  0.00009607  0.33256926
   0.50026633  0.00009607  0.83256926
   0.50026633  0.50009607  0.33256926
   0.50026633  0.50009607  0.83256926
   0.00032938  0.33247576  0.00005702
   0.00032938  0.33247576  0.50005702
   0.00032938  0.83247576  0.00005702
   0.00032938  0.83247576  0.50005702
   0.50032938  0.33247576  0.00005702
   0.50032938  0.33247576  0.50005702
   0.50032938  0.83247576  0.00005702
   0.50032938  0.83247576  0.50005702
   0.16800118  0.99974787  0.99986557
   0.16800118  0.99974787  0.49986557
   0.16800118  0.49974787  0.99986557
   0.16800118  0.49974787  0.49986557
   0.66800118  0.99974787  0.99986557
   0.66800118  0.99974787  0.49986557
   0.66800118  0.49974787  0.99986557
   0.66800118  0.49974787  0.49986557
   0.99973367  0.99990393  0.16743074
   0.99973367  0.99990393  0.66743074
   0.99973367  0.49990393  0.16743074
   0.99973367  0.49990393  0.66743074
   0.49973367  0.99990393  0.16743074
   0.49973367  0.99990393  0.66743074
   0.49973367  0.49990393  0.16743074
   0.49973367  0.49990393  0.66743074
   0.99967062  0.16752424  0.99994298
   0.99967062  0.16752424  0.49994298
   0.99967062  0.66752424  0.99994298
   0.99967062  0.66752424  0.49994298
   0.49967062  0.16752424  0.99994298
   0.49967062  0.16752424  0.49994298
   0.49967062  0.66752424  0.99994298
   0.49967062  0.66752424  0.49994298
   0.31521379  0.31571012  0.31540815
   0.31521379  0.31571012  0.81540815
   0.31521379  0.81571012  0.31540815
   0.31521379  0.81571012  0.81540815
   0.81521379  0.31571012  0.31540815
   0.81521379  0.31571012  0.81540815
   0.81521379  0.81571012  0.31540815
   0.81521379  0.81571012  0.81540815
   0.18478621  0.18428988  0.18459185
   0.18478621  0.18428988  0.68459185
   0.18478621  0.68428988  0.18459185
   0.18478621  0.68428988  0.68459185
   0.68478621  0.18428988  0.18459185
   0.68478621  0.18428988  0.68459185
   0.68478621  0.68428988  0.18459185
   0.68478621  0.68428988  0.68459185
unknown system                          
            1
     9.472613    0.089044    4.351569
     2.830145    9.029349    4.341246
     0.128211    0.083382   10.403109
   B    C 
    96    16
Direct configuration=     4
   0.15992955  0.40051177  0.40048222
   0.15992955  0.40051177  0.90048222
   0.15992955  0.90051177  0.40048222
   0.15992955  0.90051177  0.90048222
   0.65992955  0.40051177  0.40048222
   0.65992955  0.40051177  0.90048222
   0.65992955  0.90051177  0.40048222
   0.65992955  0.90051177  0.90048222
   0.40070697  0.40060842  0.16036478
   0.40070697  0.40060842  0.66036478
   0.40070697  0.90060842  0.16036478
   0.40070697  0.90060842  0.66036478
   0.90070697  0.40060842  0.16036478
   0.90070697  0.40060842  0.66036478
   0.90070697  0.90060842  0.16036478
   0.90070697  0.90060842  0.66036478
   0.40047688  0.16057148  0.40035338
   0.40047688  0.16057148  0.90035338
   0.40047688  0.66057148  0.40035338
   0.40047688  0.66057148  0.90035338
   0.90047688  0.16057148  0.40035338
   0.90047688  0.16057148  0.90035338
   0.90047688  0.66057148  0.40035338
   0.90047688  0.66057148  0.90035338
   0.34007045  0.09948823  0.09951778
   0.34007045  0.09948823  0.59951778
   0.34007045  0.59948823  0.09951778
   0.34007045  0.59948823  0.59951778
   0.84007045  0.09948823  0.09951778
   0.84007045  0.09948823  0.59951778
   0.84007045  0.59948823  0.09951778
   0.84007045  0.59948823  0.59951778
   0.09929303  0.09939158  0.33963522
   0.09929303  0.09939158  0.83963522
   0.09929303  0.59939158  0.33963522
   0.09929303  0.59939158  0.83963522
   0.59929303  0.09939158  0.33963522
   0.59929303  0.09939158  0.83963522
   0.59929303  0.59939158  0.33963522
   0.59929303  0.59939158  0.83963522
   0.09952312  0.33942852  0.09964662
   0.09952312  0.33942852  0.59964662
   0.09952312  0.83942852  0.09964662
   0.09952312  0.83942852  0.59964662
   0.59952312  0.33942852  0.09964662
   0.59952312  0.33942852  0.59964662
   0.59952312  0.83942852  0.09964662
   0.59952312  0.83942852  0.59964662
   0.33196885  0.00049404  0.00041012
   0.33196885  0.00049404  0.50041012
   0.33196885  0.50049404  0.00041012
   0.33196885  0.50049404  0.50041012
   0.83196885  0.00049404  0.00041012
   0.83196885  0.00049404  0.50041012
   0.83196885  0.50049404  0.00041012
   0.83196885  0.50049404  0.50041012
   0.00033961  0.00023548  0.33227852
   0.00033961  0.00023548  0.83227852
   0.00033961  0.50023548  0.33227852
   0.00033961  0.50023548  0.83227852
   0.50033961  0.00023548  0.33227852
   0.50033961  0.00023548  0.83227852
   0.50033961  0.50023548  0.33227852
   0.50033961  0.50023548  0.83227852
   0.00043972  0.33222680  0.00024393
   0.00043972  0.33222680  0.50024393
   0.00043972  0.83222680  0.00024393
   0.00043972  0.83222680  0.50024393
   0.50043972  0.33222680  0.00024393
   0.50043972  0.33222680  0.50024393
   0.50043972  0.83222680  0.00024393
   0.50043972  0.83222680  0.50024393
   0.16803115  0.99950596  0.99958988
   0.16803115  0.99950596  0.49958988
   0.16803115  0.49950596  0.99958988
   0.16803115  0.49950596  0.49958988
   0.66803115  0.99950596  0.99958988
   0.66803115  0.99950596  0.49958988
   0.66803115  0.49950596  0.99958988
   0.66803115  0.49950596  0.49958988
   0.99966039  0.99976452  0.16772148
   0.99966039  0.99976452  0.66772148
   0.99966039  0.49976452  0.16772148
   0.99966039  0.49976452  0.66772148
   0.49966039  0.99976452  0.16772148
   0.49966039  0.99976452  0.66772148
   0.49966039  0.49976452  0.16772148
   0.49966039  0.49976452  0.66772148
   0.99956028  0.16777320  0.99975607
   0.99956028  0.16777320  0.49975607
   0.99956028  0.66777320  0.99975607
   0.99956028  0.66777320  0.49975607
   0.49956028  0.16777320  0.99975607
   0.49956028  0.16777320  0.49975607
   0.49956028  0.66777320  0.99975607
   0.49956028  0.66777320  0.49975607
   0.31563200  0.31533168  0.31547567
   0.31563200  0.31533168  0.81547567
   0.31563200  0.81533168  0.31547567
   0.31563200  0.81533168  0.81547567
   0.81563200  0.31533168  0.31547567
   0.81563200  0.31533168  0.81547567
   0.81563200  0.81533168  0.31547567
   0.81563200  0.81533168  0.81547567
   0.18436800  0.18466832  0.18452433
   0.18436800  0.18466832  0.68452433
   0.18436800  0.68466832  0.18452433
   0.18436800  0.68466832  0.68452433
   0.68436800  0.18466832  0.18452433
   0.68436800  0.18466832  0.68452433
   0.68436800  0.68466832  0.18452433
   0.68436800  0.68466832  0.68452433
unknown system                          
            1
     9.480787    0.085615    4.342766
     2.828770    9.024450    4.333760
     0.122451    0.080474   10.394839
   B    C 
    96    16
Direct configuration=     5
   0.16017758  0.40034197  0.40034664
   0.16017758  0.40034197  0.90034664
   0.16017758  0.90034197  0.40034664
   0.16017758  0.90034197  0.90034664
   0.66017758  0.40034197  0.40034664
   0.66017758  0.40034197  0.90034664
   0.66017758  0.90034197  0.40034664
   0.66017758  0.90034197  0.90034664
   0.40073872  0.40045445  0.16044729
   0.40073872  0.40045445  0.66044729
   0.40073872  0.90045445  0.16044729
   0.40073872  0.90045445  0.66044729
   0.90073872  0.40045445  0.16044729
   0.90073872  0.40045445  0.66044729
   0.90073872  0.90045445  0.16044729
   0.90073872  0.90045445  0.66044729
   0.40061725  0.16040380  0.40034715
   0.40061725  0.16040380  0.90034715
   0.40061725  0.66040380  0.40034715
   0.40061725  0.66040380  0.90034715
   0.90061725  0.16040380  0.40034715
   0.90061725  0.16040380  0.90034715
   0.90061725  0.66040380  0.40034715
   0.90061725  0.66040380  0.90034715
   0.33982242  0.09965803  0.09965336
   0.33982242  0.09965803  0.59965336
   0.33982242  0.59965803  0.09965336
   0.33982242  0.59965803  0.59965336
   0.83982242  0.09965803  0.09965336
   0.83982242  0.09965803  0.59965336
   0.83982242  0.59965803  0.09965336
   0.83982242  0.59965803  0.59965336
   0.09926128  0.09954555  0.33955271
   0.09926128  0.09954555  0.83955271
   0.09926128  0.59954555  0.33955271
   0.09926128  0.59954555  0.83955271
   0.59926128  0.09954555  0.33955271
   0.59926128  0.09954555  0.83955271
   0.59926128  0.59954555  0.33955271
   0.59926128  0.59954555  0.83955271
   0.09938275  0.33959620  0.09965285
   0.09938275  0.33959620  0.59965285
   0.09938275  0.83959620  0.09965285
   0.09938275  0.83959620  0.59965285
   0.59938275  0.33959620  0.09965285
   0.59938275  0.33959620  0.59965285
   0.59938275  0.83959620  0.09965285
   0.59938275  0.83959620  0.59965285
   0.33198839  0.00033784  0.00023209
   0.33198839  0.00033784  0.50023209
   0.33198839  0.50033784  0.00023209
   0.33198839  0.50033784  0.50023209
   0.83198839  0.00033784  0.00023209
   0.83198839  0.00033784  0.50023209
   0.83198839  0.50033784  0.00023209
   0.83198839  0.50033784  0.50023209
   0.00029201  0.00014536  0.33246651
   0.00029201  0.00014536  0.83246651
   0.00029201  0.50014536  0.33246651
   0.00029201  0.50014536  0.83246651
   0.50029201  0.00014536  0.33246651
   0.50029201  0.00014536  0.83246651
   0.50029201  0.50014536  0.33246651
   0.50029201  0.50014536  0.83246651
   0.00036837  0.33238772  0.00012317
   0.00036837  0.33238772  0.50012317
   0.00036837  0.83238772  0.00012317
   0.00036837  0.83238772  0.50012317
   0.50036837  0.33238772  0.00012317
   0.50036837  0.33238772  0.50012317
   0.50036837  0.83238772  0.00012317
   0.50036837  0.83238772  0.50012317
   0.16801161  0.99966216  0.99976791
   0.16801161  0.99966216  0.49976791
   0.16801161  0.49966216  0.99976791
   0.16801161  0.49966216  0.49976791
   0.66801161  0.99966216  0.99976791
   0.66801161  0.99966216  0.49976791
   0.66801161  0.49966216  0.99976791
   0.66801161  0.49966216  0.49976791
   0.99970799  0.99985464  0.16753349
   0.99970799  0.99985464  0.66753349
   0.99970799  0.49985464  0.16753349
   0.99970799  0.49985464  0.66753349
   0.49970799  0.99985464  0.16753349
   0.49970799  0.99985464  0.66753349
   0.49970799  0.49985464  0.16753349
   0.49970799  0.49985464  0.66753349
   0.99963163  0.16761228  0.99987683
   0.99963163  0.16761228  0.49987683
   0.99963163  0.66761228  0.99987683
   0.99963163  0.66761228  0.49987683
   0.49963163  0.16761228  0.99987683
   0.49963163  0.16761228  0.49987683
   0.49963163  0.66761228  0.99987683
   0.49963163  0.66761228  0.49987683
   0.31536124  0.31557633  0.31543232
   0.31536124  0.31557633  0.81543232
   0.31536124  0.81557633  0.31543232
   0.31536124  0.81557633  0.81543232
   0.81536124  0.31557633  0.31543232
   0.81536124  0.31557633  0.81543232
   0.81536124  0.81557633  0.31543232
   0.81536124  0.81557633  0.81543232
   0.18463876  0.18442367  0.18456768
   0.18463876  0.18442367  0.68456768
   0.18463876  0.68442367  0.18456768
   0.18463876  0.68442367  0.68456768
   0.68463876  0.18442367  0.18456768
   0.68463876  0.18442367  0.68456768
   0.68463876  0.68442367  0.18456768
   0.68463876  0.68442367  0.68456768
unknown system                          
            1
     9.476446    0.087436    4.347439
     2.829500    9.027050    4.337734
     0.125509    0.082018   10.399229
   B    C 
    96    16
Direct configuration=     6
   0.16004606  0.40043214  0.40041856
   0.16004606  0.40043214  0.90041856
   0.16004606  0.90043214  0.40041856
   0.16004606  0.90043214  0.90041856
   0.66004606  0.40043214  0.40041856
   0.66004606  0.40043214  0.90041856
   0.66004606  0.90043214  0.40041856
   0.66004606  0.90043214  0.90041856
   0.40072185  0.40053623  0.16040349
   0.40072185  0.40053623  0.66040349
   0.40072185  0.90053623  0.16040349
   0.40072185  0.90053623  0.66040349
   0.90072185  0.40053623  0.16040349
   0.90072185  0.40053623  0.66040349
   0.90072185  0.90053623  0.16040349
   0.90072185  0.90053623  0.66040349
   0.40054279  0.16049285  0.40035042
   0.40054279  0.16049285  0.90035042
   0.40054279  0.66049285  0.40035042
   0.40054279  0.66049285  0.90035042
   0.90054279  0.16049285  0.40035042
   0.90054279  0.16049285  0.90035042
   0.90054279  0.66049285  0.40035042
   0.90054279  0.66049285  0.90035042
   0.33995394  0.09956786  0.09958144
   0.33995394  0.09956786  0.59958144
   0.33995394  0.59956786  0.09958144
   0.33995394  0.59956786  0.59958144
   0.83995394  0.09956786  0.09958144
   0.83995394  0.09956786  0.59958144
   0.83995394  0.59956786  0.09958144
   0.83995394  0.59956786  0.59958144
   0.09927815  0.09946377  0.33959651
   0.09927815  0.09946377  0.83959651
   0.09927815  0.59946377  0.33959651
   0.09927815  0.59946377  0.83959651
   0.59927815  0.09946377  0.33959651
   0.59927815  0.09946377  0.83959651
   0.59927815  0.59946377  0.33959651
   0.59927815  0.59946377  0.83959651
   0.09945721  0.33950715  0.09964958
   0.09945721  0.33950715  0.59964958
   0.09945721  0.83950715  0.09964958
   0.09945721  0.83950715  0.59964958
   0.59945721  0.33950715  0.09964958
   0.59945721  0.33950715  0.59964958
   0.59945721  0.83950715  0.09964958
   0.59945721  0.83950715  0.59964958
   0.33197807  0.00042084  0.00032669
   0.33197807  0.00042084  0.50032669
   0.33197807  0.50042084  0.00032669
   0.33197807  0.50042084  0.50032669
   0.83197807  0.00042084  0.00032669
   0.83197807  0.00042084  0.50032669
   0.83197807  0.50042084  0.00032669
   0.83197807  0.50042084  0.50032669
   0.00031721  0.00019321  0.33236670
   0.00031721  0.00019321  0.83236670
   0.00031721  0.50019321  0.33236670
   0.00031721  0.50019321  0.83236670
   0.50031721  0.00019321  0.33236670
   0.50031721  0.00019321  0.83236670
   0.50031721  0.50019321  0.33236670
   0.50031721  0.50019321  0.83236670
   0.00040625  0.33230227  0.00018732
   0.00040625  0.33230227  0.50018732
   0.00040625  0.83230227  0.00018732
   0.00040625  0.83230227  0.50018732
   0.50040625  0.33230227  0.00018732
   0.50040625  0.33230227  0.50018732
   0.50040625  0.83230227  0.00018732
   0.50040625  0.83230227  0.50018732
   0.16802193  0.99957916  0.99967331
   0.16802193  0.99957916  0.49967331
   0.16802193  0.49957916  0.99967331
   0.16802193  0.49957916  0.49967331
   0.66802193  0.99957916  0.99967331
   0.66802193  0.99957916  0.49967331
   0.66802193  0.49957916  0.99967331
   0.66802193  0.49957916  0.49967331
   0.99968279  0.99980679  0.16763330
   0.99968279  0.99980679  0.66763330
   0.99968279  0.49980679  0.16763330
   0.99968279  0.49980679  0.66763330
   0.49968279  0.99980679  0.16763330
   0.49968279  0.99980679  0.66763330
   0.49968279  0.49980679  0.16763330
   0.49968279  0.49980679  0.66763330
   0.99959375  0.16769773  0.99981268
   0.99959375  0.16769773  0.49981268
   0.99959375  0.66769773  0.99981268
   0.99959375  0.66769773  0.49981268
   0.49959375  0.16769773  0.99981268
   0.49959375  0.16769773  0.49981268
   0.49959375  0.66769773  0.99981268
   0.49959375  0.66769773  0.49981268
   0.31550487  0.31544642  0.31545544
   0.31550487  0.31544642  0.81545544
   0.31550487  0.81544642  0.31545544
   0.31550487  0.81544642  0.81545544
   0.81550487  0.31544642  0.31545544
   0.81550487  0.31544642  0.81545544
   0.81550487  0.81544642  0.31545544
   0.81550487  0.81544642  0.81545544
   0.18449513  0.18455358  0.18454456
   0.18449513  0.18455358  0.68454456
   0.18449513  0.68455358  0.18454456
   0.18449513  0.68455358  0.68454456
   0.68449513  0.18455358  0.18454456
   0.68449513  0.18455358  0.68454456
   0.68449513  0.68455358  0.18454456
   0.68449513  0.68455358  0.68454456
unknown system                          
            1
     9.470593    0.090009    4.351495
     2.829865    9.030183    4.342454
     0.127400    0.084295   10.404641
   B    C 
    96    16
Direct configuration=     7
   0.16019661  0.40044746  0.40045721
   0.16019661  0.40044746  0.90045721
   0.16019661  0.90044746  0.40045721
   0.16019661  0.90044746  0.90045721
   0.66019661  0.40044746  0.40045721
   0.66019661  0.40044746  0.90045721
   0.66019661  0.90044746  0.40045721
   0.66019661  0.90044746  0.90045721
   0.40061916  0.40062997  0.16038868
   0.40061916  0.40062997  0.66038868
   0.40061916  0.90062997  0.16038868
   0.40061916  0.90062997  0.66038868
   0.90061916  0.40062997  0.16038868
   0.90061916  0.40062997  0.66038868
   0.90061916  0.90062997  0.16038868
   0.90061916  0.90062997  0.66038868
   0.40055965  0.16033563  0.40058070
   0.40055965  0.16033563  0.90058070
   0.40055965  0.66033563  0.40058070
   0.40055965  0.66033563  0.90058070
   0.90055965  0.16033563  0.40058070
   0.90055965  0.16033563  0.90058070
   0.90055965  0.66033563  0.40058070
   0.90055965  0.66033563  0.90058070
   0.33980339  0.09955254  0.09954279
   0.33980339  0.09955254  0.59954279
   0.33980339  0.59955254  0.09954279
   0.33980339  0.59955254  0.59954279
   0.83980339  0.09955254  0.09954279
   0.83980339  0.09955254  0.59954279
   0.83980339  0.59955254  0.09954279
   0.83980339  0.59955254  0.59954279
   0.09938084  0.09937003  0.33961132
   0.09938084  0.09937003  0.83961132
   0.09938084  0.59937003  0.33961132
   0.09938084  0.59937003  0.83961132
   0.59938084  0.09937003  0.33961132
   0.59938084  0.09937003  0.83961132
   0.59938084  0.59937003  0.33961132
   0.59938084  0.59937003  0.83961132
   0.09944035  0.33966437  0.09941930
   0.09944035  0.33966437  0.59941930
   0.09944035  0.83966437  0.09941930
   0.09944035  0.83966437  0.59941930
   0.59944035  0.33966437  0.09941930
   0.59944035  0.33966437  0.59941930
   0.59944035  0.83966437  0.09941930
   0.59944035  0.83966437  0.59941930
   0.33194948  0.00059036  0.00056123
   0.33194948  0.00059036  0.50056123
   0.33194948  0.50059036  0.00056123
   0.33194948  0.50059036  0.50056123
   0.83194948  0.00059036  0.00056123
   0.83194948  0.00059036  0.50056123
   0.83194948  0.50059036  0.00056123
   0.83194948  0.50059036  0.50056123
   0.00034689  0.00035849  0.33210376
   0.00034689  0.00035849  0.83210376
   0.00034689  0.50035849  0.33210376
   0.00034689  0.50035849  0.83210376
   0.50034689  0.00035849  0.33210376
   0.50034689  0.00035849  0.83210376
   0.50034689  0.50035849  0.33210376
   0.50034689  0.50035849  0.83210376
   0.00042137  0.33203996  0.00040033
   0.00042137  0.33203996  0.50040033
   0.00042137  0.83203996  0.00040033
   0.00042137  0.83203996  0.50040033
   0.50042137  0.33203996  0.00040033
   0.50042137  0.33203996  0.50040033
   0.50042137  0.83203996  0.00040033