 112 112   0   0
  0.7622248E+01  0.1029314E-08  0.1029314E-08  0.1029314E-08  0.5000000E-15
   1.0000000000000000E-004
  CAR 
 unknown system                          
     13.64871013    -11.90445530  301      4.22728863      1.00000000
    -11.904  0.0000E+00  0.0000E+00
    -11.819  0.0000E+00  0.0000E+00
    -11.734  0.0000E+00  0.0000E+00
    -11.649  0.0000E+00  0.0000E+00
    -11.564  0.0000E+00  0.0000E+00
    -11.479  0.0000E+00  0.0000E+00
    -11.393  0.0000E+00  0.0000E+00
    -11.308  0.0000E+00  0.0000E+00
    -11.223  0.0000E+00  0.0000E+00
    -11.138  0.0000E+00  0.0000E+00
    -11.053  0.0000E+00  0.0000E+00
    -10.968  0.0000E+00  0.0000E+00
    -10.882  0.0000E+00  0.0000E+00
    -10.797  0.0000E+00  0.0000E+00
    -10.712  0.3489E-03  0.3602E-05
    -10.627  0.4907E-02  0.1900E-03
    -10.542  0.1474E-01  0.9893E-03
    -10.456  0.6042E-01  0.3252E-02
    -10.371  0.2285E-01  0.1191E-01
    -10.286  0.6753E-02  0.1310E-01
    -10.201  0.1741E-03  0.1333E-01
    -10.116  0.2585E-01  0.1350E-01
    -10.031  0.1122E+00  0.2027E-01
     -9.945  0.1339E+00  0.3136E-01
     -9.860  0.7376E-01  0.3935E-01
     -9.775  0.1183E+00  0.4956E-01
     -9.690  0.0000E+00  0.5333E-01
     -9.605  0.0000E+00  0.5333E-01
     -9.519  0.0000E+00  0.5333E-01
     -9.434  0.0000E+00  0.5333E-01
     -9.349  0.0000E+00  0.5333E-01
     -9.264  0.0000E+00  0.5333E-01
     -9.179  0.0000E+00  0.5333E-01
     -9.094  0.0000E+00  0.5333E-01
     -9.008  0.0000E+00  0.5333E-01
     -8.923  0.0000E+00  0.5333E-01
     -8.838  0.6249E-04  0.5333E-01
     -8.753  0.5074E-02  0.5350E-01
     -8.668  0.1811E-01  0.5443E-01
     -8.583  0.4275E-01  0.5687E-01
     -8.497  0.9160E-01  0.6242E-01
     -8.412  0.1877E+00  0.7405E-01
     -8.327  0.1354E-01  0.8180E-01
     -8.242  0.1791E-01  0.8314E-01
     -8.157  0.2225E-01  0.8485E-01
     -8.071  0.2658E-01  0.8693E-01
     -7.986  0.8231E-01  0.9095E-01
     -7.901  0.5584E-01  0.9784E-01
     -7.816  0.2755E-01  0.1007E+00
     -7.731  0.1699E+00  0.1130E+00
     -7.646  0.7220E-01  0.1199E+00
     -7.560  0.5364E-01  0.1253E+00
     -7.475  0.3599E-01  0.1291E+00
     -7.390  0.2042E-01  0.1315E+00
     -7.305  0.9451E-02  0.1327E+00
     -7.220  0.9042E-02  0.1332E+00
     -7.135  0.9380E-01  0.1380E+00
     -7.049  0.1489E-01  0.1466E+00
     -6.964  0.9069E-01  0.1490E+00
     -6.879  0.4194E-01  0.1561E+00
     -6.794  0.2005E-01  0.1586E+00
     -6.709  0.6713E-02  0.1597E+00
     -6.623  0.7562E-03  0.1600E+00
     -6.538  0.0000E+00  0.1600E+00
     -6.453  0.5740E-01  0.1631E+00
     -6.368  0.5976E-01  0.1682E+00
     -6.283  0.5850E-01  0.1733E+00
     -6.198  0.2278E+00  0.1810E+00
     -6.112  0.2482E-01  0.1871E+00
     -6.027  0.6660E-01  0.1916E+00
     -5.942  0.7178E-01  0.1976E+00
     -5.857  0.1827E+00  0.2068E+00
     -5.772  0.5521E-01  0.2168E+00
     -5.687  0.9444E-01  0.2234E+00
     -5.601  0.7206E-01  0.2310E+00
     -5.516  0.6570E-01  0.2359E+00
     -5.431  0.9658E-01  0.2430E+00
     -5.346  0.1007E+00  0.2516E+00
     -5.261  0.8463E-01  0.2596E+00
     -5.175  0.6828E-01  0.2644E+00
     -5.090  0.5972E-01  0.2711E+00
     -5.005  0.2764E-01  0.2731E+00
     -4.920  0.5530E-01  0.2772E+00
     -4.835  0.2886E-02  0.2800E+00
     -4.750  0.5526E-01  0.2833E+00
     -4.664  0.2452E-01  0.2861E+00
     -4.579  0.1381E+00  0.2958E+00
     -4.494  0.7009E-01  0.3030E+00
     -4.409  0.5728E-01  0.3085E+00
     -4.324  0.4459E-01  0.3128E+00
     -4.239  0.3203E-01  0.3161E+00
     -4.153  0.1959E-01  0.3183E+00
     -4.068  0.7814E-02  0.3194E+00
     -3.983  0.3118E-02  0.3198E+00
     -3.898  0.5431E-03  0.3200E+00
     -3.813  0.4945E-05  0.3200E+00
     -3.727  0.1460E-02  0.3200E+00
     -3.642  0.5628E-02  0.3203E+00
     -3.557  0.1896E-01  0.3213E+00
     -3.472  0.3548E-01  0.3236E+00
     -3.387  0.5304E-01  0.3274E+00
     -3.302  0.7166E-01  0.3327E+00
     -3.216  0.1073E+00  0.3407E+00
     -3.131  0.4679E-01  0.3473E+00
     -3.046  0.2424E-01  0.3504E+00
     -2.961  0.2741E-01  0.3525E+00
     -2.876  0.9823E-01  0.3596E+00
     -2.790  0.7863E-01  0.3657E+00
     -2.705  0.8034E-01  0.3725E+00
     -2.620  0.8942E-01  0.3797E+00
     -2.535  0.8645E-01  0.3874E+00
     -2.450  0.6656E-01  0.3943E+00
     -2.365  0.3539E-01  0.3981E+00
     -2.279  0.1631E+00  0.4064E+00
     -2.194  0.7461E-01  0.4153E+00
     -2.109  0.5115E-01  0.4206E+00
     -2.024  0.1151E+00  0.4279E+00
     -1.939  0.1365E+00  0.4399E+00
     -1.854  0.1784E+00  0.4507E+00
     -1.768  0.1406E+00  0.4660E+00
     -1.683  0.1470E+00  0.4784E+00
     -1.598  0.7364E-01  0.4900E+00
     -1.513  0.1713E-01  0.4929E+00
     -1.428  0.4551E-01  0.4949E+00
     -1.342  0.1216E+00  0.5025E+00
     -1.257  0.1307E+00  0.5137E+00
     -1.172  0.3540E+00  0.5258E+00
     -1.087  0.6117E-01  0.5322E+00
     -1.002  0.5935E-01  0.5373E+00
     -0.917  0.1524E+00  0.5439E+00
     -0.831  0.1626E+00  0.5577E+00
     -0.746  0.1400E+00  0.5706E+00
     -0.661  0.1135E+00  0.5815E+00
     -0.576  0.1465E+00  0.5956E+00
     -0.491  0.2702E-01  0.5994E+00
     -0.406  0.2243E-01  0.6012E+00
     -0.320  0.4093E-01  0.6040E+00
     -0.235  0.5155E-01  0.6079E+00
     -0.150  0.5937E-01  0.6127E+00
     -0.065  0.6560E-01  0.6180E+00
      0.020  0.6944E-01  0.6238E+00
      0.106  0.6701E-01  0.6300E+00
      0.191  0.4191E-01  0.6330E+00
      0.276  0.7803E-01  0.6374E+00
      0.361  0.9198E-01  0.6457E+00
      0.446  0.1381E+00  0.6541E+00
      0.531  0.2516E+00  0.6734E+00
      0.617  0.2193E+00  0.6959E+00
      0.702  0.1089E+00  0.7068E+00
      0.787  0.1252E+00  0.7160E+00
      0.872  0.1016E+00  0.7242E+00
      0.957  0.9276E-01  0.7326E+00
      1.042  0.9815E-01  0.7401E+00
      1.128  0.8537E-01  0.7510E+00
      1.213  0.1666E+00  0.7633E+00
      1.298  0.1726E+00  0.7833E+00
      1.383  0.1230E+00  0.7886E+00
      1.468  0.2968E+00  0.8136E+00
      1.554  0.1873E+00  0.8349E+00
      1.639  0.8269E-01  0.8430E+00
      1.724  0.7158E-01  0.8495E+00
      1.809  0.6224E-01  0.8552E+00
      1.894  0.5188E-01  0.8601E+00
      1.979  0.3876E-01  0.8639E+00
      2.065  0.1832E-01  0.8663E+00
      2.150  0.1152E+00  0.8703E+00
      2.235  0.3730E+00  0.8950E+00
      2.320  0.3541E+00  0.9271E+00
      2.405  0.2369E+00  0.9520E+00
      2.490  0.2021E+00  0.9637E+00
      2.576  0.1304E+00  0.9793E+00
      2.661  0.1582E+00  0.9878E+00
      2.746  0.7544E-01  0.9960E+00
      2.831  0.2059E+00  0.1009E+01
      2.916  0.2041E+00  0.1027E+01
      3.002  0.2449E+00  0.1052E+01
      3.087  0.1740E+00  0.1065E+01
      3.172  0.1354E+00  0.1079E+01
      3.257  0.8131E-01  0.1088E+01
      3.342  0.1420E+00  0.1102E+01
      3.427  0.1894E-01  0.1106E+01
      3.513  0.8976E-02  0.1107E+01
      3.598  0.8099E-01  0.1110E+01
      3.683  0.1952E+00  0.1121E+01
      3.768  0.4984E-01  0.1137E+01
      3.853  0.9997E-01  0.1143E+01
      3.939  0.1031E+00  0.1152E+01
      4.024  0.6151E-01  0.1160E+01
      4.109  0.4599E-01  0.1164E+01
      4.194  0.1066E+00  0.1170E+01
      4.279  0.7137E-02  0.1174E+01
      4.364  0.1018E-01  0.1175E+01
      4.450  0.1405E-01  0.1176E+01
      4.535  0.1876E-01  0.1178E+01
      4.620  0.3403E-01  0.1179E+01
      4.705  0.4759E-01  0.1184E+01
      4.790  0.1594E-01  0.1186E+01
      4.875  0.0000E+00  0.1187E+01
      4.961  0.0000E+00  0.1187E+01
      5.046  0.0000E+00  0.1187E+01
      5.131  0.2178E-01  0.1187E+01
      5.216  0.2105E+00  0.1199E+01
      5.301  0.1094E+00  0.1208E+01
      5.387  0.1207E+00  0.1219E+01
      5.472  0.3913E-01  0.1227E+01
      5.557  0.0000E+00  0.1227E+01
      5.642  0.1676E-02  0.1227E+01
      5.727  0.1135E-01  0.1227E+01
      5.812  0.3401E-01  0.1229E+01
      5.898  0.4525E-01  0.1233E+01
      5.983  0.4506E-01  0.1237E+01
      6.068  0.3345E-01  0.1240E+01
      6.153  0.8971E-01  0.1247E+01
      6.238  0.6787E-01  0.1252E+01
      6.323  0.6967E-01  0.1258E+01
      6.409  0.6773E-01  0.1263E+01
      6.494  0.4331E-01  0.1273E+01
      6.579  0.2616E-01  0.1276E+01
      6.664  0.1662E-01  0.1278E+01
      6.749  0.9455E-02  0.1279E+01
      6.835  0.4300E-02  0.1280E+01
      6.920  0.1150E-02  0.1280E+01
      7.005  0.5045E-05  0.1280E+01
      7.090  0.0000E+00  0.1280E+01
      7.175  0.0000E+00  0.1280E+01
      7.260  0.0000E+00  0.1280E+01
      7.346  0.0000E+00  0.1280E+01
      7.431  0.0000E+00  0.1280E+01
      7.516  0.0000E+00  0.1280E+01
      7.601  0.0000E+00  0.1280E+01
      7.686  0.0000E+00  0.1280E+01
      7.771  0.0000E+00  0.1280E+01
      7.857  0.0000E+00  0.1280E+01
      7.942  0.0000E+00  0.1280E+01
      8.027  0.0000E+00  0.1280E+01
      8.112  0.9519E-04  0.1280E+01
      8.197  0.1528E-02  0.1280E+01
      8.283  0.4683E-02  0.1280E+01
      8.368  0.9559E-02  0.1281E+01
      8.453  0.1616E-01  0.1282E+01
      8.538  0.2553E-01  0.1284E+01
      8.623  0.4466E-01  0.1287E+01
      8.708  0.2938E-01  0.1290E+01
      8.794  0.2159E-01  0.1292E+01
      8.879  0.7141E-01  0.1296E+01
      8.964  0.9105E-01  0.1303E+01
      9.049  0.7639E-01  0.1311E+01
      9.134  0.5799E-01  0.1316E+01
      9.219  0.6962E-01  0.1321E+01
      9.305  0.6147E-01  0.1327E+01
      9.390  0.3659E-01  0.1331E+01
      9.475  0.3715E-01  0.1334E+01
      9.560  0.5719E-01  0.1338E+01
      9.645  0.2364E+00  0.1345E+01
      9.731  0.1389E+00  0.1362E+01
      9.816  0.4194E-01  0.1366E+01
      9.901  0.5110E-01  0.1370E+01
      9.986  0.5507E-01  0.1374E+01
     10.071  0.4971E-01  0.1379E+01
     10.156  0.1017E+00  0.1384E+01
     10.242  0.1031E+00  0.1390E+01
     10.327  0.2250E+00  0.1408E+01
     10.412  0.7319E-01  0.1417E+01
     10.497  0.1348E+00  0.1427E+01
     10.582  0.7915E-01  0.1433E+01
     10.668  0.1994E-01  0.1442E+01
     10.753  0.2833E-01  0.1444E+01
     10.838  0.3882E-01  0.1447E+01
     10.923  0.4486E-01  0.1450E+01
     11.008  0.4969E-01  0.1454E+01
     11.093  0.5333E-01  0.1459E+01
     11.179  0.5578E-01  0.1463E+01
     11.264  0.5705E-01  0.1468E+01
     11.349  0.5712E-01  0.1473E+01
     11.434  0.5601E-01  0.1478E+01
     11.519  0.4573E-01  0.1483E+01
     11.604  0.8194E-01  0.1489E+01
     11.690  0.1585E+00  0.1500E+01
     11.775  0.7322E-01  0.1506E+01
     11.860  0.6731E-01  0.1512E+01
     11.945  0.7051E-01  0.1518E+01
     12.030  0.7119E-01  0.1524E+01
     12.116  0.3661E-01  0.1528E+01
     12.201  0.3214E-01  0.1531E+01
     12.286  0.1425E+00  0.1537E+01
     12.371  0.3162E-01  0.1547E+01
     12.456  0.6766E-01  0.1552E+01
     12.541  0.0000E+00  0.1553E+01
     12.627  0.0000E+00  0.1553E+01
     12.712  0.0000E+00  0.1553E+01
     12.797  0.0000E+00  0.1553E+01
     12.882  0.0000E+00  0.1553E+01
     12.967  0.0000E+00  0.1553E+01
     13.052  0.0000E+00  0.1553E+01
     13.138  0.0000E+00  0.1553E+01
     13.223  0.0000E+00  0.1553E+01
     13.308  0.0000E+00  0.1553E+01
     13.393  0.0000E+00  0.1553E+01
     13.478  0.0000E+00  0.1553E+01
     13.564  0.0000E+00  0.1553E+01
     13.649  0.0000E+00  0.1553E+01
