Automatically generated mesh
       4
Reciprocal lattice
    0.00000000000000    0.00000000000000    0.00000000000000             1
    0.50000000000000    0.00000000000000    0.00000000000000             3
    0.50000000000000    0.50000000000000    0.00000000000000             3
    0.50000000000000    0.50000000000000    0.50000000000000             1
Tetrahedra
         4    0.02083333333333
        12         1         2         3         4
        12         2         2         3         3
        12         1         2         2         3
        12         2         3         3         4
