       N       E                     dE             d eps       ncg     rms          rms(c)
DAV:   1     0.138232389311E+04    0.13823E+04   -0.19816E+05  1864   0.176E+03
DAV:   2    -0.713882560793E+03   -0.20962E+04   -0.19775E+04  2308   0.310E+02
DAV:   3    -0.839468979360E+03   -0.12559E+03   -0.12213E+03  2200   0.670E+01
DAV:   4    -0.842340148527E+03   -0.28712E+01   -0.28533E+01  2192   0.105E+01
DAV:   5    -0.842415715499E+03   -0.75567E-01   -0.75410E-01  2152   0.162E+00    0.395E+01
RMM:   6    -0.804593362527E+03    0.37822E+02   -0.34766E+01  1864   0.871E+00    0.221E+01
RMM:   7    -0.793530530427E+03    0.11063E+02   -0.33857E+01  1864   0.901E+00    0.521E+00
RMM:   8    -0.793699685662E+03   -0.16916E+00   -0.35128E+00  1864   0.366E+00    0.233E+00
RMM:   9    -0.793772660236E+03   -0.72975E-01   -0.36097E-01  1864   0.120E+00    0.815E-01
RMM:  10    -0.793742817368E+03    0.29843E-01   -0.13221E-01  1864   0.599E-01    0.313E-01
RMM:  11    -0.793749115817E+03   -0.62984E-02   -0.24014E-02  1873   0.275E-01    0.927E-02
RMM:  12    -0.793749027372E+03    0.88444E-04   -0.55133E-03  1898   0.116E-01    0.452E-02
RMM:  13    -0.793748685219E+03    0.34215E-03   -0.11344E-03  1871   0.581E-02    0.279E-02
RMM:  14    -0.793749226515E+03   -0.54130E-03   -0.39738E-04  1864   0.309E-02    0.690E-03
RMM:  15    -0.793749212941E+03    0.13574E-04   -0.87682E-05  1881   0.154E-02    0.682E-03
RMM:  16    -0.793749263094E+03   -0.50153E-04   -0.19201E-05  1838   0.677E-03    0.317E-03
RMM:  17    -0.793749254639E+03    0.84557E-05   -0.33369E-06  1333   0.294E-03    0.196E-03
RMM:  18    -0.793749225613E+03    0.29026E-04   -0.13413E-06  1179   0.184E-03    0.261E-04
RMM:  19    -0.793749225496E+03    0.11687E-06   -0.25530E-07  1104   0.876E-04
   1 F= -.79374923E+03 E0= -.79374923E+03  d E =-.793749E+03
       N       E                     dE             d eps       ncg     rms          rms(c)
DAV:   1    -0.793760826153E+03   -0.11601E-01   -0.13601E+00  2048   0.244E+00    0.361E-01
RMM:   2    -0.793756703470E+03    0.41227E-02   -0.22128E-02  1864   0.310E-01    0.204E-01
RMM:   3    -0.793756496002E+03    0.20747E-03   -0.40256E-03  1864   0.128E-01    0.618E-02
RMM:   4    -0.793756655749E+03   -0.15975E-03   -0.64018E-04  1876   0.510E-02    0.204E-02
RMM:   5    -0.793756751916E+03   -0.96167E-04   -0.99202E-05  1883   0.199E-02    0.703E-03
RMM:   6    -0.793756747103E+03    0.48132E-05   -0.22283E-05  1905   0.859E-03    0.375E-03
RMM:   7    -0.793756788209E+03   -0.41106E-04   -0.47630E-06  1497   0.413E-03    0.972E-04
RMM:   8    -0.793756770873E+03    0.17336E-04   -0.10649E-06  1172   0.182E-03    0.519E-04
RMM:   9    -0.793756769728E+03    0.11455E-05   -0.30719E-07  1133   0.949E-04    0.316E-04
RMM:  10    -0.793756772834E+03   -0.31064E-05   -0.50598E-08   677   0.473E-04    0.106E-04
RMM:  11    -0.793756773364E+03   -0.52989E-06   -0.80481E-09   465   0.387E-04
   2 F= -.79375677E+03 E0= -.79375677E+03  d E =-.754787E-02
       N       E                     dE             d eps       ncg     rms          rms(c)
DAV:   1    -0.793756981536E+03   -0.20870E-03   -0.87527E-02  2024   0.619E-01    0.916E-02
RMM:   2    -0.793757636612E+03   -0.65508E-03   -0.13899E-03  1864   0.783E-02    0.516E-02
RMM:   3    -0.793757487717E+03    0.14890E-03   -0.25493E-04  1864   0.323E-02    0.155E-02
RMM:   4    -0.793757456771E+03    0.30946E-04   -0.39101E-05  1876   0.128E-02    0.492E-03
RMM:   5    -0.793757434642E+03    0.22129E-04   -0.58434E-06  1675   0.490E-03    0.173E-03
RMM:   6    -0.793757435669E+03   -0.10268E-05   -0.12325E-06  1178   0.211E-03    0.951E-04
RMM:   7    -0.793757426881E+03    0.87877E-05   -0.29546E-07  1131   0.983E-04    0.238E-04
RMM:   8    -0.793757430338E+03   -0.34564E-05   -0.47178E-08   669   0.461E-04    0.133E-04
RMM:   9    -0.793757430362E+03   -0.24752E-07   -0.92398E-09   455   0.389E-04
   3 F= -.79375743E+03 E0= -.79375743E+03  d E =-.820487E-02
       N       E                     dE             d eps       ncg     rms          rms(c)
DAV:   1    -0.793757517076E+03   -0.86739E-04   -0.74514E-02  1992   0.571E-01    0.845E-02
RMM:   2    -0.793756763538E+03    0.75354E-03   -0.11805E-03  1864   0.723E-02    0.477E-02
RMM:   3    -0.793756829767E+03   -0.66229E-04   -0.21600E-04  1864   0.298E-02    0.143E-02
RMM:   4    -0.793756861192E+03   -0.31425E-04   -0.33084E-05  1876   0.117E-02    0.464E-03
RMM:   5    -0.793756881997E+03   -0.20805E-04   -0.49174E-06  1585   0.450E-03    0.162E-03
RMM:   6    -0.793756881218E+03    0.77872E-06   -0.10184E-06  1168   0.191E-03
   4 F= -.79375688E+03 E0= -.79375688E+03  d E =-.765572E-02
       N       E                     dE             d eps       ncg     rms          rms(c)
DAV:   1    -0.793756220334E+03    0.66166E-03   -0.77692E-01  1968   0.183E+00    0.295E-01
RMM:   2    -0.793759966299E+03   -0.37460E-02   -0.11127E-02  1864   0.223E-01    0.166E-01
RMM:   3    -0.793759565448E+03    0.40085E-03   -0.16726E-03  1867   0.876E-02    0.695E-02
RMM:   4    -0.793759682485E+03   -0.11704E-03   -0.41477E-04  1877   0.410E-02    0.201E-02
RMM:   5    -0.793759500804E+03    0.18168E-03   -0.66313E-05  1869   0.163E-02    0.797E-03
RMM:   6    -0.793759567352E+03   -0.66548E-04   -0.12807E-05  1776   0.658E-03    0.300E-03
RMM:   7    -0.793759564562E+03    0.27896E-05   -0.28090E-06  1308   0.319E-03    0.702E-04
RMM:   8    -0.793759573075E+03   -0.85124E-05   -0.59179E-07  1145   0.141E-03    0.506E-04
RMM:   9    -0.793759571278E+03    0.17962E-05   -0.12329E-07   859   0.645E-04    0.324E-04
RMM:  10    -0.793759569851E+03    0.14275E-05   -0.58108E-08   750   0.493E-04    0.102E-04
RMM:  11    -0.793759571995E+03   -0.21437E-05    0.00000E+00   399   0.320E-04    0.451E-05
RMM:  12    -0.793759572471E+03   -0.47682E-06    0.00000E+00   385   0.316E-04
   5 F= -.79375957E+03 E0= -.79375957E+03  d E =-.269125E-02
       N       E                     dE             d eps       ncg     rms          rms(c)
DAV:   1    -0.793760610032E+03   -0.10380E-02   -0.30474E-02  2000   0.363E-01    0.584E-02
RMM:   2    -0.793759707267E+03    0.90276E-03   -0.43589E-04  1864   0.441E-02    0.329E-02
RMM:   3    -0.793759746927E+03   -0.39660E-04   -0.65352E-05  1866   0.173E-02    0.136E-02
RMM:   4    -0.793759730771E+03    0.16156E-04   -0.16181E-05  1860   0.811E-03    0.377E-03
RMM:   5    -0.793759768999E+03   -0.38228E-04   -0.26546E-06  1247   0.325E-03    0.160E-03
RMM:   6    -0.793759753920E+03    0.15079E-04   -0.48547E-07  1152   0.132E-03    0.554E-04
RMM:   7    -0.793759753638E+03    0.28140E-06   -0.10098E-07   825   0.617E-04
   6 F= -.79375975E+03 E0= -.79375975E+03  d E =-.287242E-02
       N       E                     dE             d eps       ncg     rms          rms(c)
DAV:   1    -0.793759336029E+03    0.41789E-03   -0.65948E-03  2007   0.169E-01    0.272E-02
RMM:   2    -0.793759738729E+03   -0.40270E-03   -0.94141E-05  1864   0.205E-02    0.153E-02
RMM:   3    -0.793759715638E+03    0.23091E-04   -0.14082E-05  1860   0.805E-03    0.635E-03
RMM:   4    -0.793759723767E+03   -0.81293E-05   -0.34758E-06  1378   0.377E-03    0.180E-03
RMM:   5    -0.793759705669E+03    0.18098E-04   -0.57352E-07  1132   0.146E-03    0.742E-04
RMM:   6    -0.793759713051E+03   -0.73821E-05   -0.80343E-08   761   0.597E-04    0.246E-04
RMM:   7    -0.793759715438E+03   -0.23870E-05   -0.31671E-08   567   0.422E-04    0.822E-05
RMM:   8    -0.793759714390E+03    0.10486E-05   -0.13103E-10   294   0.310E-04    0.196E-05
RMM:   9    -0.793759714141E+03    0.24857E-06    0.00000E+00   252   0.306E-04
   7 F= -.79375971E+03 E0= -.79375971E+03  d E =-.283292E-02
       N       E                     dE             d eps       ncg     rms          rms(c)
DAV:   1    -0.793766689042E+03   -0.69747E-02   -0.29648E-01  1938   0.114E+00    0.190E-01
RMM:   2    -0.793763303697E+03    0.33853E-02   -0.46445E-03  1864   0.146E-01    0.947E-02
RMM:   3    -0.793763839218E+03   -0.53552E-03   -0.72631E-04  1864   0.555E-02    0.458E-02
RMM:   4    -0.793764010773E+03   -0.17156E-03   -0.14896E-04  1877   0.242E-02    0.127E-02
RMM:   5    -0.793764047937E+03   -0.37163E-04   -0.21776E-05  1876   0.994E-03    0.342E-03
RMM:   6    -0.793764016230E+03    0.31707E-04   -0.40402E-06  1378   0.398E-03    0.138E-03
RMM:   7    -0.793764016080E+03    0.14983E-06   -0.10213E-06  1156   0.187E-03
   8 F= -.79376402E+03 E0= -.79376402E+03  d E =-.430194E-02
       N       E                     dE             d eps       ncg     rms          rms(c)
DAV:   1    -0.793763854962E+03    0.16127E-03   -0.30723E-04  2168   0.368E-02    0.611E-03
RMM:   2    -0.793763952292E+03   -0.97329E-04   -0.45349E-06  1484   0.455E-03    0.303E-03
RMM:   3    -0.793763934877E+03    0.17414E-04   -0.66710E-07  1044   0.168E-03    0.148E-03
RMM:   4    -0.793763930383E+03    0.44944E-05   -0.11027E-07   920   0.678E-04    0.392E-04
RMM:   5    -0.793763928566E+03    0.18165E-05   -0.19521E-09   270   0.308E-04    0.849E-05
RMM:   6    -0.793763929391E+03   -0.82479E-06   -0.54268E-10   212   0.300E-04
   9 F= -.79376393E+03 E0= -.79376393E+03  d E =-.421525E-02
       N       E                     dE             d eps       ncg     rms          rms(c)
DAV:   1    -0.793763081646E+03    0.84692E-03   -0.80317E-03  1958   0.188E-01    0.312E-02
RMM:   2    -0.793763563696E+03   -0.48205E-03   -0.12571E-04  1864   0.240E-02    0.156E-02
RMM:   3    -0.793763475444E+03    0.88252E-04   -0.19715E-05  1864   0.913E-03    0.753E-03
RMM:   4    -0.793763450150E+03    0.25295E-04   -0.40478E-06  1460   0.398E-03    0.208E-03
RMM:   5    -0.793763444375E+03    0.57748E-05   -0.59073E-07  1127   0.160E-03    0.560E-04
RMM:   6    -0.793763449528E+03   -0.51527E-05   -0.84787E-08   820   0.628E-04    0.198E-04
RMM:   7    -0.793763450601E+03   -0.10734E-05   -0.12497E-08   433   0.386E-04    0.450E-05
RMM:   8    -0.793763450725E+03   -0.12357E-06   -0.10083E-10   324   0.337E-04
  10 F= -.79376345E+03 E0= -.79376345E+03  d E =-.373658E-02
       N       E                     dE             d eps       ncg     rms          rms(c)
DAV:   1    -0.793765609455E+03   -0.21589E-02   -0.68637E-03  1994   0.171E-01    0.243E-02
RMM:   2    -0.793765486560E+03    0.12290E-03   -0.11049E-04  1864   0.229E-02    0.136E-02
RMM:   3    -0.793765314813E+03    0.17175E-03   -0.31451E-05  1864   0.104E-02    0.290E-03
RMM:   4    -0.793765336152E+03   -0.21339E-04   -0.28632E-06  1328   0.369E-03    0.197E-03
RMM:   5    -0.793765332759E+03    0.33938E-05   -0.66666E-07  1133   0.165E-03    0.513E-04
RMM:   6    -0.793765332226E+03    0.53251E-06   -0.88434E-08   869   0.599E-04
  11 F= -.79376533E+03 E0= -.79376533E+03  d E =-.188150E-02
       N       E                     dE             d eps       ncg     rms          rms(c)
DAV:   1    -0.793765337470E+03   -0.47115E-05   -0.10351E-07  1304   0.664E-04    0.163E-04
RMM:   2    -0.793765339413E+03   -0.19424E-05   -0.19775E-09   222   0.254E-04    0.857E-05
RMM:   3    -0.793765339114E+03    0.29910E-06   -0.59401E-11   134   0.264E-04
  12 F= -.79376534E+03 E0= -.79376534E+03  d E =-.188839E-02
