 vasp.6.2.0 18Jan21 (build Feb 25 2021 07:51:20) complex                         
 executed on             LinuxPGI date 2022.04.13  12:49:33
 running on    1 total cores
 distrk:  each k-point on    1 cores,    1 groups
 distr:  one band on NCORE=   1 cores,    1 groups


--------------------------------------------------------------------------------------------------------


 INCAR:
   ALGO = Fast
   PREC = Accurate
   EDIFF = 1E-6
   ENCUT = 700
   ISMEAR = -5
   IBRION = 2
   ISIF = 4
   LREAL = Auto
   LWAVE = False
   LCHARGE = False
   NSW = 300
   SIGMA = 0.05

 POTCAR:    PAW_PBE B 06Sep2000                   
 POTCAR:    PAW_PBE C 08Apr2002                   
 POTCAR:    PAW_PBE B 06Sep2000                   
   VRHFIN =B: s2p1                                                                                  
   LEXCH  = PE                                                                                      
   EATOM  =    71.1703 eV,    5.2309 Ry                                                             
                                                                                                    
   TITEL  = PAW_PBE B 06Sep2000                                                                     
   LULTRA =        F    use ultrasoft PP ?                                                          
   IUNSCR =        1    unscreen: 0-lin 1-nonlin 2-no                                               
   RPACOR =    1.200    partial core radius                                                         
   POMASS =   10.811; ZVAL   =    3.000    mass and valenz                                          
   RCORE  =    1.700    outmost cutoff radius                                                       
   RWIGS  =    1.710; RWIGS  =    0.905    wigner-seitz radius (au A)                               
   ENMAX  =  318.614; ENMIN  =  238.960 eV                                                          
   ICORE  =        2    local potential                                                             
   LCOR   =        T    correct aug charges                                                         
   LPAW   =        T    paw PP                                                                      
   EAUG   =  535.514                                                                                
   DEXC   =    0.000                                                                                
   RMAX   =    1.732    core radius for proj-oper                                                   
   RAUG   =    1.300    factor for augmentation sphere                                              
   RDEP   =    1.757    radius for radial grids                                                     
   RDEPT  =    1.436    core radius for aug-charge                                                  
                                                                                                    
   Atomic configuration                                                                             
    4 entries                                                                                       
     n  l   j            E        occ.                                                              
     1  0  0.50      -180.5896   2.0000                                                             
     2  0  0.50        -9.4431   2.0000                                                             
     2  1  0.50        -3.6068   1.0000                                                             
     3  2  1.50        -4.0817   0.0000                                                             
   Description                                                                                      
     l       E           TYP  RCUT    TYP  RCUT                                                     
     0     -9.4430752     23  1.500                                                                 
     0      0.8675899     23  1.500                                                                 
     1     -3.6067955     23  1.700                                                                 
     1      6.1086146     23  1.700                                                                 
     2     -4.0817478      7  1.700                                                                 
  local pseudopotential read in
  partial core-charges read in
  partial kinetic energy density read in
  atomic valenz-charges read in
  non local Contribution for L=            0  read in
    real space projection operators read in
  non local Contribution for L=            0  read in
    real space projection operators read in
  non local Contribution for L=            1  read in
    real space projection operators read in
  non local Contribution for L=            1  read in
    real space projection operators read in
    PAW grid and wavefunctions read in
 
   number of l-projection  operators is LMAX  =            4
   number of lm-projection operators is LMMAX =            8
 
 POTCAR:    PAW_PBE C 08Apr2002                   
   VRHFIN =C: s2p2                                                                                  
   LEXCH  = PE                                                                                      
   EATOM  =   147.1560 eV,   10.8157 Ry                                                             
                                                                                                    
   TITEL  = PAW_PBE C 08Apr2002                                                                     
   LULTRA =        F    use ultrasoft PP ?                                                          
   IUNSCR =        1    unscreen: 0-lin 1-nonlin 2-no                                               
   RPACOR =    1.200    partial core radius                                                         
   POMASS =   12.011; ZVAL   =    4.000    mass and valenz                                          
   RCORE  =    1.500    outmost cutoff radius                                                       
   RWIGS  =    1.630; RWIGS  =    0.863    wigner-seitz radius (au A)                               
   ENMAX  =  400.000; ENMIN  =  300.000 eV                                                          
   ICORE  =        2    local potential                                                             
   LCOR   =        T    correct aug charges                                                         
   LPAW   =        T    paw PP                                                                      
   EAUG   =  644.873                                                                                
   DEXC   =    0.000                                                                                
   RMAX   =    1.529    core radius for proj-oper                                                   
   RAUG   =    1.300    factor for augmentation sphere                                              
   RDEP   =    1.501    radius for radial grids                                                     
   RDEPT  =    1.300    core radius for aug-charge                                                  
                                                                                                    
   Atomic configuration                                                                             
    4 entries                                                                                       
     n  l   j            E        occ.                                                              
     1  0  0.50      -273.3789   2.0000                                                             
     2  0  0.50       -13.7508   2.0000                                                             
     2  1  0.50        -5.2854   2.0000                                                             
     3  2  1.50        -5.4423   0.0000                                                             
   Description                                                                                      
     l       E           TYP  RCUT    TYP  RCUT                                                     
     0    -13.7508458     23  1.200                                                                 
     0     -8.2022199     23  1.200                                                                 
     1     -5.2854383     23  1.500                                                                 
     1     34.0145650     23  1.500                                                                 
     2     -5.4423304      7  1.500                                                                 
  local pseudopotential read in
  partial core-charges read in
  partial kinetic energy density read in
  atomic valenz-charges read in
  non local Contribution for L=            0  read in
    real space projection operators read in
  non local Contribution for L=            0  read in
    real space projection operators read in
  non local Contribution for L=            1  read in
    real space projection operators read in
  non local Contribution for L=            1  read in
    real space projection operators read in
    PAW grid and wavefunctions read in
 
   number of l-projection  operators is LMAX  =            4
   number of lm-projection operators is LMMAX =            8
 
 Optimization of the real space projectors (new method)

 maximal supplied QI-value         = 22.11
 optimisation between [QCUT,QGAM] = [ 13.49, 26.97] = [ 50.94,203.75] Ry 
 Optimized for a Real-space Cutoff    1.14 Angstroem

   l    n(q)    QCUT    max X(q) W(low)/X(q) W(high)/X(q)  e(spline) 
   0      9    13.487    53.033    0.17E-03    0.11E-03    0.20E-06
   0      9    13.487    34.740    0.17E-03    0.11E-03    0.20E-06
   1      9    13.487    30.949    0.61E-04    0.25E-04    0.11E-06
   1      9    13.487    19.518    0.55E-04    0.23E-04    0.10E-06
 Optimization of the real space projectors (new method)

 maximal supplied QI-value         = 25.13
 optimisation between [QCUT,QGAM] = [ 13.32, 26.89] = [ 49.69,202.52] Ry 
 Optimized for a Real-space Cutoff    1.07 Angstroem

   l    n(q)    QCUT    max X(q) W(low)/X(q) W(high)/X(q)  e(spline) 
   0      9    13.321   115.676    0.24E-03    0.18E-03    0.16E-06
   0      9    13.321    87.132    0.24E-03    0.18E-03    0.16E-06
   1      8    13.321     4.429    0.20E-03    0.27E-03    0.12E-06
   1      8    13.321     2.733    0.16E-03    0.21E-03    0.12E-06
  PAW_PBE B 06Sep2000                   :
 energy of atom  1       EATOM=  -71.1703
 kinetic energy error for atom=    0.0004 (will be added to EATOM!!)
  PAW_PBE C 08Apr2002                   :
 energy of atom  2       EATOM= -147.1560
 kinetic energy error for atom=    0.0032 (will be added to EATOM!!)
 
 
 POSCAR: B96 C16
  positions in direct lattice
  No initial velocities read in
 exchange correlation table for  LEXCH =        8
   RHO(1)=    0.500       N(1)  =     2000
   RHO(2)=  100.500       N(2)  =     4000
 


--------------------------------------------------------------------------------------------------------


 ion  position               nearest neighbor table
   1  0.160  0.401  0.401-  97 1.54  76 1.77  42 1.77  35 1.77  66 1.79  59 1.79
   2  0.160  0.401  0.901-  98 1.54  75 1.77  41 1.77  36 1.77  65 1.79  60 1.79
   3  0.160  0.901  0.401-  99 1.54  74 1.77  44 1.77  33 1.77  68 1.79  57 1.79
   4  0.160  0.901  0.901- 100 1.54  73 1.77  43 1.77  34 1.77  67 1.79  58 1.79
   5  0.660  0.401  0.401- 101 1.54  80 1.77  46 1.77  39 1.77  70 1.79  63 1.79
   6  0.660  0.401  0.901- 102 1.54  79 1.77  45 1.77  40 1.77  69 1.79  64 1.79
   7  0.660  0.901  0.401- 103 1.54  78 1.77  48 1.77  37 1.77  72 1.79  61 1.79
   8  0.660  0.901  0.901- 104 1.54  77 1.77  47 1.77  38 1.77  71 1.79  62 1.79
   9  0.401  0.401  0.160-  97 1.54  87 1.77  45 1.77  27 1.77  69 1.79  51 1.79
  10  0.401  0.401  0.660-  98 1.54  88 1.77  46 1.77  28 1.77  70 1.79  52 1.79
  11  0.401  0.901  0.160-  99 1.54  85 1.77  47 1.77  25 1.77  71 1.79  49 1.79
  12  0.401  0.901  0.660- 100 1.54  86 1.77  48 1.77  26 1.77  72 1.79  50 1.79
  13  0.901  0.401  0.160- 101 1.54  83 1.77  41 1.77  31 1.77  65 1.79  55 1.79
  14  0.901  0.401  0.660- 102 1.54  84 1.77  42 1.77  32 1.77  66 1.79  56 1.79
  15  0.901  0.901  0.160- 103 1.54  81 1.77  43 1.77  29 1.77  67 1.79  53 1.79
  16  0.901  0.901  0.660- 104 1.54  82 1.77  44 1.77  30 1.77  68 1.79  54 1.79
  17  0.401  0.160  0.401-  97 1.54  94 1.77  26 1.77  37 1.77  50 1.79  61 1.79
  18  0.401  0.160  0.901-  98 1.54  93 1.77  25 1.77  38 1.77  49 1.79  62 1.79
  19  0.401  0.660  0.401-  99 1.54  96 1.77  28 1.77  39 1.77  52 1.79  63 1.79
  20  0.401  0.660  0.901- 100 1.54  95 1.77  27 1.77  40 1.77  51 1.79  64 1.79
  21  0.901  0.160  0.401- 101 1.54  90 1.77  30 1.77  33 1.77  54 1.79  57 1.79
  22  0.901  0.160  0.901- 102 1.54  89 1.77  29 1.77  34 1.77  53 1.79  58 1.79
  23  0.901  0.660  0.401- 103 1.54  92 1.77  32 1.77  35 1.77  56 1.79  59 1.79
  24  0.901  0.660  0.901- 104 1.54  91 1.77  31 1.77  36 1.77  55 1.79  60 1.79
  25  0.340  0.099  0.099- 105 1.54  49 1.77  18 1.77  11 1.77  93 1.79  85 1.79
  26  0.340  0.099  0.599- 106 1.54  50 1.77  17 1.77  12 1.77  94 1.79  86 1.79
  27  0.340  0.599  0.099- 107 1.54  51 1.77  20 1.77   9 1.77  95 1.79  87 1.79
  28  0.340  0.599  0.599- 108 1.54  52 1.77  19 1.77  10 1.77  96 1.79  88 1.79
  29  0.840  0.099  0.099- 109 1.54  53 1.77  22 1.77  15 1.77  89 1.79  81 1.79
  30  0.840  0.099  0.599- 110 1.54  54 1.77  21 1.77  16 1.77  90 1.79  82 1.79
  31  0.840  0.599  0.099- 111 1.54  55 1.77  24 1.77  13 1.77  91 1.79  83 1.79
  32  0.840  0.599  0.599- 112 1.54  56 1.77  23 1.77  14 1.77  92 1.79  84 1.79
  33  0.099  0.099  0.340- 105 1.54  57 1.77  21 1.77   3 1.77  90 1.79  74 1.79
  34  0.099  0.099  0.840- 106 1.54  58 1.77  22 1.77   4 1.77  89 1.79  73 1.79
  35  0.099  0.599  0.340- 107 1.54  59 1.77  23 1.77   1 1.77  92 1.79  76 1.79
  36  0.099  0.599  0.840- 108 1.54  60 1.77  24 1.77   2 1.77  91 1.79  75 1.79
  37  0.599  0.099  0.340- 109 1.54  61 1.77  17 1.77   7 1.77  94 1.79  78 1.79
  38  0.599  0.099  0.840- 110 1.54  62 1.77  18 1.77   8 1.77  93 1.79  77 1.79
  39  0.599  0.599  0.340- 111 1.54  63 1.77  19 1.77   5 1.77  96 1.79  80 1.79
  40  0.599  0.599  0.840- 112 1.54  64 1.77  20 1.77   6 1.77  95 1.79  79 1.79
  41  0.099  0.340  0.099- 105 1.54  65 1.77   2 1.77  13 1.77  75 1.79  83 1.79
  42  0.099  0.340  0.599- 106 1.54  66 1.77   1 1.77  14 1.77  76 1.79  84 1.79
  43  0.099  0.840  0.099- 107 1.54  67 1.77   4 1.77  15 1.77  73 1.79  81 1.79
  44  0.099  0.840  0.599- 108 1.54  68 1.77   3 1.77  16 1.77  74 1.79  82 1.79
  45  0.599  0.340  0.099- 109 1.54  69 1.77   6 1.77   9 1.77  79 1.79  87 1.79
  46  0.599  0.340  0.599- 110 1.54  70 1.77   5 1.77  10 1.77  80 1.79  88 1.79
  47  0.599  0.840  0.099- 111 1.54  71 1.77   8 1.77  11 1.77  77 1.79  85 1.79
  48  0.599  0.840  0.599- 112 1.54  72 1.77   7 1.77  12 1.77  78 1.79  86 1.79
  49  0.332  0.000  0.000-  73 1.70  25 1.77  11 1.79  18 1.79  62 1.85  71 1.85
  50  0.332  0.000  0.500-  74 1.70  26 1.77  12 1.79  17 1.79  61 1.85  72 1.85
  51  0.332  0.500  0.000-  75 1.70  27 1.77   9 1.79  20 1.79  64 1.85  69 1.85
  52  0.332  0.500  0.500-  76 1.70  28 1.77  10 1.79  19 1.79  63 1.85  70 1.85
  53  0.832  0.000  0.000-  77 1.70  29 1.77  15 1.79  22 1.79  58 1.85  67 1.85
  54  0.832  0.000  0.500-  78 1.70  30 1.77  16 1.79  21 1.79  57 1.85  68 1.85
  55  0.832  0.500  0.000-  79 1.70  31 1.77  13 1.79  24 1.79  60 1.85  65 1.85
  56  0.832  0.500  0.500-  80 1.70  32 1.77  14 1.79  23 1.79  59 1.85  66 1.85
  57  0.000  0.000  0.332-  81 1.70  33 1.77   3 1.79  21 1.79  54 1.85  68 1.85
  58  0.000  0.000  0.832-  82 1.70  34 1.77   4 1.79  22 1.79  53 1.85  67 1.85
  59  0.000  0.500  0.332-  83 1.70  35 1.77   1 1.79  23 1.79  56 1.85  66 1.85
  60  0.000  0.500  0.832-  84 1.70  36 1.77   2 1.79  24 1.79  55 1.85  65 1.85
  61  0.500  0.000  0.332-  85 1.70  37 1.77   7 1.79  17 1.79  50 1.85  72 1.85
  62  0.500  0.000  0.832-  86 1.70  38 1.77   8 1.79  18 1.79  49 1.85  71 1.85
  63  0.500  0.500  0.332-  87 1.70  39 1.77   5 1.79  19 1.79  52 1.85  70 1.85
  64  0.500  0.500  0.832-  88 1.70  40 1.77   6 1.79  20 1.79  51 1.85  69 1.85
  65  0.000  0.332  0.000-  89 1.70  41 1.77  13 1.79   2 1.79  60 1.85  55 1.85
  66  0.000  0.332  0.500-  90 1.70  42 1.77  14 1.79   1 1.79  59 1.85  56 1.85
  67  0.000  0.832  0.000-  91 1.70  43 1.77  15 1.79   4 1.79  58 1.85  53 1.85
  68  0.000  0.832  0.500-  92 1.70  44 1.77  16 1.79   3 1.79  57 1.85  54 1.85
  69  0.500  0.332  0.000-  93 1.70  45 1.77   9 1.79   6 1.79  64 1.85  51 1.85
  70  0.500  0.332  0.500-  94 1.70  46 1.77  10 1.79   5 1.79  63 1.85  52 1.85
  71  0.500  0.832  0.000-  95 1.70  47 1.77  11 1.79   8 1.79  62 1.85  49 1.85
  72  0.500  0.832  0.500-  96 1.70  48 1.77  12 1.79   7 1.79  61 1.85  50 1.85
  73  0.168  1.000  1.000-  49 1.70   4 1.77  34 1.79  43 1.79  81 1.85  89 1.85
  74  0.168  1.000  0.500-  50 1.70   3 1.77  33 1.79  44 1.79  82 1.85  90 1.85
  75  0.168  0.500  1.000-  51 1.70   2 1.77  36 1.79  41 1.79  83 1.85  91 1.85
  76  0.168  0.500  0.500-  52 1.70   1 1.77  35 1.79  42 1.79  84 1.85  92 1.85
  77  0.668  1.000  1.000-  53 1.70   8 1.77  38 1.79  47 1.79  85 1.85  93 1.85
  78  0.668  1.000  0.500-  54 1.70   7 1.77  37 1.79  48 1.79  86 1.85  94 1.85
  79  0.668  0.500  1.000-  55 1.70   6 1.77  40 1.79  45 1.79  87 1.85  95 1.85
  80  0.668  0.500  0.500-  56 1.70   5 1.77  39 1.79  46 1.79  88 1.85  96 1.85
  81  1.000  1.000  0.168-  57 1.70  15 1.77  29 1.79  43 1.79  73 1.85  89 1.85
  82  1.000  1.000  0.668-  58 1.70  16 1.77  30 1.79  44 1.79  74 1.85  90 1.85
  83  1.000  0.500  0.168-  59 1.70  13 1.77  31 1.79  41 1.79  75 1.85  91 1.85
  84  1.000  0.500  0.668-  60 1.70  14 1.77  32 1.79  42 1.79  76 1.85  92 1.85
  85  0.500  1.000  0.168-  61 1.70  11 1.77  25 1.79  47 1.79  77 1.85  93 1.85
  86  0.500  1.000  0.668-  62 1.70  12 1.77  26 1.79  48 1.79  78 1.85  94 1.85
  87  0.500  0.500  0.168-  63 1.70   9 1.77  27 1.79  45 1.79  79 1.85  95 1.85
  88  0.500  0.500  0.668-  64 1.70  10 1.77  28 1.79  46 1.79  80 1.85  96 1.85
  89  1.000  0.168  1.000-  65 1.70  22 1.77  34 1.79  29 1.79  81 1.85  73 1.85
  90  1.000  0.168  0.500-  66 1.70  21 1.77  33 1.79  30 1.79  82 1.85  74 1.85
  91  1.000  0.668  1.000-  67 1.70  24 1.77  36 1.79  31 1.79  83 1.85  75 1.85
  92  1.000  0.668  0.500-  68 1.70  23 1.77  35 1.79  32 1.79  84 1.85  76 1.85
  93  0.500  0.168  1.000-  69 1.70  18 1.77  38 1.79  25 1.79  85 1.85  77 1.85
  94  0.500  0.168  0.500-  70 1.70  17 1.77  37 1.79  26 1.79  86 1.85  78 1.85
  95  0.500  0.668  1.000-  71 1.70  20 1.77  40 1.79  27 1.79  87 1.85  79 1.85
  96  0.500  0.668  0.500-  72 1.70  19 1.77  39 1.79  28 1.79  88 1.85  80 1.85
  97  0.315  0.315  0.315-   9 1.54   1 1.54  17 1.54
  98  0.315  0.315  0.815-  10 1.54   2 1.54  18 1.54
  99  0.315  0.815  0.315-  11 1.54   3 1.54  19 1.54
 100  0.315  0.815  0.815-  12 1.54   4 1.54  20 1.54
 101  0.815  0.315  0.315-  13 1.54   5 1.54  21 1.54
 102  0.815  0.315  0.815-  14 1.54   6 1.54  22 1.54
 103  0.815  0.815  0.315-  15 1.54   7 1.54  23 1.54
 104  0.815  0.815  0.815-  16 1.54   8 1.54  24 1.54
 105  0.185  0.185  0.185-  33 1.54  25 1.54  41 1.54
 106  0.185  0.185  0.685-  34 1.54  26 1.54  42 1.54
 107  0.185  0.685  0.185-  35 1.54  27 1.54  43 1.54
 108  0.185  0.685  0.685-  36 1.54  28 1.54  44 1.54
 109  0.685  0.185  0.185-  37 1.54  29 1.54  45 1.54
 110  0.685  0.185  0.685-  38 1.54  30 1.54  46 1.54
 111  0.685  0.685  0.185-  39 1.54  31 1.54  47 1.54
 112  0.685  0.685  0.685-  40 1.54  32 1.54  48 1.54
 
  LATTYP: Found a trigonal (rhomboedric) cell.
 ALAT       =    10.2931363326
 COS(alpha) =     0.4242224587
  
  Lattice vectors:
  
 A1 = (   9.3617080000,   0.0720830000,   4.2780700000)
 A2 = (   2.7772130000,   8.9405750000,   4.2780700000)
 A3 = (   0.0970870000,   0.0720830000,  10.2924250000)


Analysis of symmetry for initial positions (statically):
=====================================================================
 Subroutine PRICEL returns following result:
 
  LATTYP: Found a trigonal (rhomboedric) cell.
 ALAT       =     5.1465681663
 COS(alpha) =     0.4242224587
  
  Lattice vectors:
  
 A1 = (   4.6808540000,   0.0360415000,   2.1390350000)
 A2 = (   1.3886065000,   4.4702875000,   2.1390350000)
 A3 = (   0.0485435000,   0.0360415000,   5.1462125000)
 
   8 primitive cells build up your supercell.
 

 Routine SETGRP: Setting up the symmetry group for a 
 trigonal (rhombohedral) supercell.


 Subroutine GETGRP returns: Found 12 space group operations
 (whereof 12 operations were pure point group operations)
 out of a pool of 12 trial point group operations.


The static configuration has the point symmetry D_3d.


Analysis of symmetry for dynamics (positions and initial velocities):
=====================================================================
 Subroutine PRICEL returns following result:
 
  LATTYP: Found a trigonal (rhomboedric) cell.
 ALAT       =     5.1465681663
 COS(alpha) =     0.4242224587
  
  Lattice vectors:
  
 A1 = (   4.6808540000,   0.0360415000,   2.1390350000)
 A2 = (   1.3886065000,   4.4702875000,   2.1390350000)
 A3 = (   0.0485435000,   0.0360415000,   5.1462125000)
 
   8 primitive cells build up your supercell.
 

 Routine SETGRP: Setting up the symmetry group for a 
 trigonal (rhombohedral) supercell.


 Subroutine GETGRP returns: Found 12 space group operations
 (whereof 12 operations were pure point group operations)
 out of a pool of 12 trial point group operations.


The dynamic configuration has the point symmetry D_3d.


 Subroutine INISYM returns: Found 12 space group operations
 (whereof 12 operations are pure point group operations),
 and found     8 'primitive' translations


----------------------------------------------------------------------------------------

                                     Primitive cell                                     

  volume of cell :     106.7115

  direct lattice vectors                    reciprocal lattice vectors
     4.680854000  0.036041500  2.139035000     0.214859325 -0.065993164 -0.001564555
     1.388606500  4.470287500  2.139035000    -0.001015666  0.224763393 -0.001564550
     0.048543500  0.036041500  5.146212500    -0.088884606 -0.065993209  0.195618285

  length of vectors
     5.146568166  5.146568670  5.146567648     0.224771161  0.224771133  0.224771195

  position of ions in fractional coordinates (direct lattice)
     0.320790000  0.801030000  0.801030000
     0.801030000  0.801030000  0.320790000
     0.801030000  0.320790000  0.801030000
     0.679210000  0.198970000  0.198970000
     0.198970000  0.198970000  0.679210000
     0.198970000  0.679210000  0.198970000
     0.664586000  0.000230000  0.000230000
     0.000230000  0.000230000  0.664586000
     0.000230000  0.664586000  0.000230000
     0.335414000  0.999770000  0.999770000
     0.999770000  0.999770000  0.335414000
     0.999770000  0.335414000  0.999770000
     0.630794000  0.630794000  0.630794000
     0.369206000  0.369206000  0.369206000

  ion indices of the primitive-cell ions
   primitive index   ion index
                 1           1
                 2           9
                 3          17
                 4          28
                 5          35
                 6          42
                 7          52
                 8          59
                 9          66
                10          76
                11          83
                12          90
                13          97
                14         105

----------------------------------------------------------------------------------------

 
 -----------------------------------------------------------------------------
|                                                                             |
|           W    W    AA    RRRRR   N    N  II  N    N   GGGG   !!!           |
|           W    W   A  A   R    R  NN   N  II  NN   N  G    G  !!!           |
|           W    W  A    A  R    R  N N  N  II  N N  N  G       !!!           |
|           W WW W  AAAAAA  RRRRR   N  N N  II  N  N N  G  GGG   !            |
|           WW  WW  A    A  R   R   N   NN  II  N   NN  G    G                |
|           W    W  A    A  R    R  N    N  II  N    N   GGGG   !!!           |
|                                                                             |
|     The requested file  could not be found or opened for reading            |
|     k-point information. Automatic k-point generation is used as a          |
|     fallback, which may lead to unwanted results.                           |
|                                                                             |
 -----------------------------------------------------------------------------

 

Automatic generation of k-mesh.
 Grid dimensions derived from KSPACING:
 generate k-points for:    2    2    2

 Generating k-lattice:

  Cartesian coordinates                     Fractional coordinates (reciprocal lattice)
     0.053714831 -0.016498291 -0.000391139     0.500000000 -0.000000000 -0.000000000
    -0.000253916  0.056190848 -0.000391137     0.000000000  0.500000000  0.000000000
    -0.022221152 -0.016498302  0.048904571    -0.000000000  0.000000000  0.500000000

  Length of vectors
     0.056192790  0.056192783  0.056192799

  Shift w.r.t. Gamma in fractional coordinates (k-lattice)
     0.000000000  0.000000000  0.000000000

 TETIRR: Found      4 inequivalent tetrahedra from       48
 
 Subroutine IBZKPT returns following result:
 ===========================================
 
 Found      4 irreducible k-points:
 
 Following reciprocal coordinates:
            Coordinates               Weight
  0.000000  0.000000  0.000000      1.000000
  0.500000  0.000000  0.000000      3.000000
  0.500000  0.500000  0.000000      3.000000
  0.500000  0.500000  0.500000      1.000000
 
 Following cartesian coordinates:
            Coordinates               Weight
  0.000000  0.000000  0.000000      1.000000
  0.053715 -0.016498 -0.000391      3.000000
  0.053461  0.039693 -0.000782      3.000000
  0.031240  0.023194  0.048122      1.000000
 


--------------------------------------------------------------------------------------------------------




 Dimension of arrays:
   k-points           NKPTS =      4   k-points in BZ     NKDIM =      4   number of bands    NBANDS=    233
   number of dos      NEDOS =    301   number of ions     NIONS =    112
   non local maximal  LDIM  =      4   non local SUM 2l+1 LMDIM =      8
   total plane-waves  NPLWV = 729000
   max r-space proj   IRMAX =   5354   max aug-charges    IRDMAX=  13515
   dimension x,y,z NGX =    90 NGY =   90 NGZ =   90
   dimension x,y,z NGXF=   180 NGYF=  180 NGZF=  180
   support grid    NGXF=   180 NGYF=  180 NGZF=  180
   ions per type =              96  16
   NGX,Y,Z   is equivalent  to a cutoff of  14.54, 14.54, 14.54 a.u.
   NGXF,Y,Z  is equivalent  to a cutoff of  29.07, 29.07, 29.07 a.u.

 SYSTEM =  unknown system                          
 POSCAR =  B96 C16                                 

 Startparameter for this run:
   NWRITE =      2    write-flag & timer
   PREC   = accura    normal or accurate (medium, high low for compatibility)
   ISTART =      0    job   : 0-new  1-cont  2-samecut
   ICHARG =      2    charge: 1-file 2-atom 10-const
   ISPIN  =      1    spin polarized calculation?
   LNONCOLLINEAR =      F non collinear calculations
   LSORBIT =      F    spin-orbit coupling
   INIWAV =      1    electr: 0-lowe 1-rand  2-diag
   LASPH  =      F    aspherical Exc in radial PAW
   METAGGA=      F    non-selfconsistent MetaGGA calc.

 Electronic Relaxation 1
   ENCUT  =  700.0 eV  51.45 Ry    7.17 a.u.  22.21 22.21 22.21*2*pi/ulx,y,z
   ENINI  =  700.0     initial cutoff
   ENAUG  =  644.9 eV  augmentation charge cutoff
   NELM   =     60;   NELMIN=  2; NELMDL= -5     # of ELM steps 
   EDIFF  = 0.1E-05   stopping-criterion for ELM
   LREAL  =      T    real-space projection
   NLSPLINE    = F    spline interpolate recip. space projectors
   LCOMPAT=      F    compatible to vasp.4.4
   GGA_COMPAT  = T    GGA compatible to vasp.4.4-vasp.4.6
   LMAXPAW     = -100 max onsite density
   LMAXMIX     =    2 max onsite mixed and CHGCAR
   VOSKOWN=      0    Vosko Wilk Nusair interpolation
   ROPT   =   -0.00025  -0.00025
 Ionic relaxation
   EDIFFG = 0.1E-04   stopping-criterion for IOM
   NSW    =    300    number of steps for IOM
   NBLOCK =      1;   KBLOCK =    300    inner block; outer block 
   IBRION =      2    ionic relax: 0-MD 1-quasi-New 2-CG
   NFREE  =      1    steps in history (QN), initial steepest desc. (CG)
   ISIF   =      4    stress and relaxation
   IWAVPR =     11    prediction:  0-non 1-charg 2-wave 3-comb
   ISYM   =      2    0-nonsym 1-usesym 2-fastsym
   LCORR  =      T    Harris-Foulkes like correction to forces

   POTIM  = 0.5000    time-step for ionic-motion
   TEIN   =    0.0    initial temperature
   TEBEG  =    0.0;   TEEND  =   0.0 temperature during run
   SMASS  =  -3.00    Nose mass-parameter (am)
   estimated Nose-frequenzy (Omega)   =  0.10E-29 period in steps = 0.13E+47 mass=  -0.242E-26a.u.
   SCALEE = 1.0000    scale energy and forces
   NPACO  =    256;   APACO  = 16.0  distance and # of slots for P.C.
   PSTRESS=    0.0 pullay stress

  Mass of Ions in am
   POMASS =  10.81 12.01
  Ionic Valenz
   ZVAL   =   3.00  4.00
  Atomic Wigner-Seitz radii
   RWIGS  =  -1.00 -1.00
  virtual crystal weights 
   VCA    =   1.00  1.00
   NELECT =     352.0000    total number of electrons
   NUPDOWN=      -1.0000    fix difference up-down

 DOS related values:
   EMIN   =  10.00;   EMAX   =-10.00  energy-range for DOS
   EFERMI =   0.00
   ISMEAR =    -5;   SIGMA  =   0.05  broadening in eV -4-tet -1-fermi 0-gaus

 Electronic relaxation 2 (details)
   IALGO  =     68    algorithm
   LDIAG  =      T    sub-space diagonalisation (order eigenvalues)
   LSUBROT=      F    optimize rotation matrix (better conditioning)
   TURBO    =      0    0=normal 1=particle mesh
   IRESTART =      0    0=no restart 2=restart with 2 vectors
   NREBOOT  =      0    no. of reboots
   NMIN     =      0    reboot dimension
   EREF     =   0.00    reference energy to select bands
   IMIX   =      4    mixing-type and parameters
     AMIX     =   0.40;   BMIX     =  1.00
     AMIX_MAG =   1.60;   BMIX_MAG =  1.00
     AMIN     =   0.10
     WC   =   100.;   INIMIX=   1;  MIXPRE=   1;  MAXMIX= -45

 Intra band minimization:
   WEIMIN = 0.0010     energy-eigenvalue tresh-hold
   EBREAK =  0.11E-08  absolut break condition
   DEPER  =   0.30     relativ break condition  

   TIME   =   0.40     timestep for ELM

  volume/ion in A,a.u.               =       7.62        51.44
  Fermi-wavevector in a.u.,A,eV,Ry     =   1.218490  2.302612 20.200817  1.484718
  Thomas-Fermi vector in A             =   2.353775
 
 Write flags
   LWAVE        =      F    write WAVECAR
   LDOWNSAMPLE  =      F    k-point downsampling of WAVECAR
   LCHARG       =      T    write CHGCAR
   LVTOT        =      F    write LOCPOT, total local potential
   LVHAR        =      F    write LOCPOT, Hartree potential only
   LELF         =      F    write electronic localiz. function (ELF)
   LORBIT       =      0    0 simple, 1 ext, 2 COOP (PROOUT), +10 PAW based schemes


 Dipole corrections
   LMONO  =      F    monopole corrections only (constant potential shift)
   LDIPOL =      F    correct potential (dipole corrections)
   IDIPOL =      0    1-x, 2-y, 3-z, 4-all directions 
   EPSILON=  1.0000000 bulk dielectric constant

 Exchange correlation treatment:
   GGA     =    --    GGA type
   LEXCH   =     8    internal setting for exchange type
   VOSKOWN=      0    Vosko Wilk Nusair interpolation
   LHFCALC =     F    Hartree Fock is set to
   LHFONE  =     F    Hartree Fock one center treatment
   AEXX    =    0.0000 exact exchange contribution

 Linear response parameters
   LEPSILON=     F    determine dielectric tensor
   LRPA    =     F    only Hartree local field effects (RPA)
   LNABLA  =     F    use nabla operator in PAW spheres
   LVEL    =     F    velocity operator in full k-point grid
   LINTERFAST=   F  fast interpolation
   KINTER  =     0    interpolate to denser k-point grid
   CSHIFT  =0.1000    complex shift for real part using Kramers Kronig
   OMEGAMAX=  -1.0    maximum frequency
   DEG_THRESHOLD= 0.2000000E-02 threshold for treating states as degnerate
   RTIME   =   -0.100 relaxation time in fs
  (WPLASMAI=    0.000 imaginary part of plasma frequency in eV, 0.658/RTIME)
   DFIELD  = 0.0000000 0.0000000 0.0000000 field for delta impulse in time
 
 Orbital magnetization related:
   ORBITALMAG=     F  switch on orbital magnetization
   LCHIMAG   =     F  perturbation theory with respect to B field
   DQ        =  0.001000  dq finite difference perturbation B field
   LLRAUG    =     F  two centre corrections for induced B field



--------------------------------------------------------------------------------------------------------


 conjugate gradient relaxation of ions
 charge density and potential will be updated during run
 non-spin polarized calculation
 RMM-DIIS sequential band-by-band and
  variant of blocked Davidson during initial phase
 perform sub-space diagonalisation
    before iterative eigenvector-optimisation
 modified Broyden-mixing scheme, WC =      100.0
 initial mixing is a Kerker type mixing with AMIX =  0.4000 and BMIX =      1.0000
 Hartree-type preconditioning will be used
 using additional bands            57
 real space projection scheme for non local part
 use partial core corrections
 calculate Harris-corrections to forces 
   (improved forces if not selfconsistent)
 use gradient corrections 
 use of overlap-Matrix (Vanderbilt PP)
 Fermi weights with tetrahedron method with Bloechl corrections


--------------------------------------------------------------------------------------------------------


  energy-cutoff  :      700.00
  volume of cell :      853.69
      direct lattice vectors                 reciprocal lattice vectors
     9.361708000  0.072083000  4.278070000     0.107429662 -0.032996582 -0.000782277
     2.777213000  8.940575000  4.278070000    -0.000507833  0.112381697 -0.000782275
     0.097087000  0.072083000 10.292425000    -0.044442303 -0.032996604  0.097809143

  length of vectors
    10.293136333 10.293137340 10.293135296     0.112385581  0.112385567  0.112385598


 
 k-points in units of 2pi/SCALE and weight: read from INCAR                         
   0.00000000  0.00000000  0.00000000       0.125
   0.05371483 -0.01649829 -0.00039114       0.375
   0.05346091  0.03969256 -0.00078228       0.375
   0.03123976  0.02319425  0.04812230       0.125
 
 k-points in reciprocal lattice and weights: read from INCAR                         
   0.00000000  0.00000000  0.00000000       0.125
   0.50000000  0.00000000  0.00000000       0.375
   0.50000000  0.50000000  0.00000000       0.375
   0.50000000  0.50000000  0.50000000       0.125
 
 position of ions in fractional coordinates (direct lattice) 
   0.16039500  0.40051500  0.40051500
   0.16039500  0.40051500  0.90051500
   0.16039500  0.90051500  0.40051500
   0.16039500  0.90051500  0.90051500
   0.66039500  0.40051500  0.40051500
   0.66039500  0.40051500  0.90051500
   0.66039500  0.90051500  0.40051500
   0.66039500  0.90051500  0.90051500
   0.40051500  0.40051500  0.16039500
   0.40051500  0.40051500  0.66039500
   0.40051500  0.90051500  0.16039500
   0.40051500  0.90051500  0.66039500
   0.90051500  0.40051500  0.16039500
   0.90051500  0.40051500  0.66039500
   0.90051500  0.90051500  0.16039500
   0.90051500  0.90051500  0.66039500
   0.40051500  0.16039500  0.40051500
   0.40051500  0.16039500  0.90051500
   0.40051500  0.66039500  0.40051500
   0.40051500  0.66039500  0.90051500
   0.90051500  0.16039500  0.40051500
   0.90051500  0.16039500  0.90051500
   0.90051500  0.66039500  0.40051500
   0.90051500  0.66039500  0.90051500
   0.33960500  0.09948500  0.09948500
   0.33960500  0.09948500  0.59948500
   0.33960500  0.59948500  0.09948500
   0.33960500  0.59948500  0.59948500
   0.83960500  0.09948500  0.09948500
   0.83960500  0.09948500  0.59948500
   0.83960500  0.59948500  0.09948500
   0.83960500  0.59948500  0.59948500
   0.09948500  0.09948500  0.33960500
   0.09948500  0.09948500  0.83960500
   0.09948500  0.59948500  0.33960500
   0.09948500  0.59948500  0.83960500
   0.59948500  0.09948500  0.33960500
   0.59948500  0.09948500  0.83960500
   0.59948500  0.59948500  0.33960500
   0.59948500  0.59948500  0.83960500
   0.09948500  0.33960500  0.09948500
   0.09948500  0.33960500  0.59948500
   0.09948500  0.83960500  0.09948500
   0.09948500  0.83960500  0.59948500
   0.59948500  0.33960500  0.09948500
   0.59948500  0.33960500  0.59948500
   0.59948500  0.83960500  0.09948500
   0.59948500  0.83960500  0.59948500
   0.33229300  0.00011500  0.00011500
   0.33229300  0.00011500  0.50011500
   0.33229300  0.50011500  0.00011500
   0.33229300  0.50011500  0.50011500
   0.83229300  0.00011500  0.00011500
   0.83229300  0.00011500  0.50011500
   0.83229300  0.50011500  0.00011500
   0.83229300  0.50011500  0.50011500
   0.00011500  0.00011500  0.33229300
   0.00011500  0.00011500  0.83229300
   0.00011500  0.50011500  0.33229300
   0.00011500  0.50011500  0.83229300
   0.50011500  0.00011500  0.33229300
   0.50011500  0.00011500  0.83229300
   0.50011500  0.50011500  0.33229300
   0.50011500  0.50011500  0.83229300
   0.00011500  0.33229300  0.00011500
   0.00011500  0.33229300  0.50011500
   0.00011500  0.83229300  0.00011500
   0.00011500  0.83229300  0.50011500
   0.50011500  0.33229300  0.00011500
   0.50011500  0.33229300  0.50011500
   0.50011500  0.83229300  0.00011500
   0.50011500  0.83229300  0.50011500
   0.16770700  0.99988500  0.99988500
   0.16770700  0.99988500  0.49988500
   0.16770700  0.49988500  0.99988500
   0.16770700  0.49988500  0.49988500
   0.66770700  0.99988500  0.99988500
   0.66770700  0.99988500  0.49988500
   0.66770700  0.49988500  0.99988500
   0.66770700  0.49988500  0.49988500
   0.99988500  0.99988500  0.16770700
   0.99988500  0.99988500  0.66770700
   0.99988500  0.49988500  0.16770700
   0.99988500  0.49988500  0.66770700
   0.49988500  0.99988500  0.16770700
   0.49988500  0.99988500  0.66770700
   0.49988500  0.49988500  0.16770700
   0.49988500  0.49988500  0.66770700
   0.99988500  0.16770700  0.99988500
   0.99988500  0.16770700  0.49988500
   0.99988500  0.66770700  0.99988500
   0.99988500  0.66770700  0.49988500
   0.49988500  0.16770700  0.99988500
   0.49988500  0.16770700  0.49988500
   0.49988500  0.66770700  0.99988500
   0.49988500  0.66770700  0.49988500
   0.31539700  0.31539700  0.31539700
   0.31539700  0.31539700  0.81539700
   0.31539700  0.81539700  0.31539700
   0.31539700  0.81539700  0.81539700
   0.81539700  0.31539700  0.31539700
   0.81539700  0.31539700  0.81539700
   0.81539700  0.81539700  0.31539700
   0.81539700  0.81539700  0.81539700
   0.18460300  0.18460300  0.18460300
   0.18460300  0.18460300  0.68460300
   0.18460300  0.68460300  0.18460300
   0.18460300  0.68460300  0.68460300
   0.68460300  0.18460300  0.18460300
   0.68460300  0.18460300  0.68460300
   0.68460300  0.68460300  0.18460300
   0.68460300  0.68460300  0.68460300
 
 position of ions in cartesian coordinates  (Angst):
   2.65277142  3.62126647  6.52188284
   2.70131492  3.65730797 11.66809534
   4.04137792  8.09155397  8.66091784
   4.08992142  8.12759547 13.80713034
   7.33362542  3.65730797  8.66091784
   7.38216892  3.69334947 13.80713034
   8.72223192  8.12759547 10.79995284
   8.77077542  8.16363697 15.94616534
   4.87739221  3.62126647  5.07771592
   4.92593571  3.65730797 10.22392842
   6.26599871  8.09155397  7.21675092
   6.31454221  8.12759547 12.36296342
   9.55824621  3.65730797  7.21675092
   9.60678971  3.69334947 12.36296342
  10.94685271  8.12759547  9.35578592
  10.99539621  8.16363697 14.50199842
   4.23384036  1.49176417  6.52188284
   4.28238386  1.52780567 11.66809534
   5.62244686  5.96205167  8.66091784
   5.67099036  5.99809317 13.80713034
   8.91469436  1.52780567  8.66091784
   8.96323786  1.56384717 13.80713034
  10.30330086  5.99809317 10.79995284
  10.35184436  6.03413467 15.94616534
   3.46523258  0.92110403  2.90239966
   3.51377608  0.95714553  8.04861216
   4.85383908  5.39139153  5.04143466
   4.90238258  5.42743303 10.18764716
   8.14608658  0.95714553  5.04143466
   8.19463008  0.99318703 10.18764716
   9.53469308  5.42743303  7.18046966
   9.58323658  5.46347453 12.32668216
   1.24061179  0.92110403  4.34656658
   1.28915529  0.95714553  9.49277908
   2.62921829  5.39139153  6.48560158
   2.67776179  5.42743303 11.63181408
   5.92146579  0.95714553  6.48560158
   5.97000929  0.99318703 11.63181408
   7.31007229  5.42743303  8.62463658
   7.35861579  5.46347453 13.77084908
   1.88416364  3.05060633  2.90239966
   1.93270714  3.08664783  8.04861216
   3.27277014  7.52089383  5.04143466
   3.32131364  7.55693533 10.18764716
   6.56501764  3.08664783  5.04143466
   6.61356114  3.12268933 10.18764716
   7.95362414  7.55693533  7.18046966
   8.00216764  7.59297683 12.32668216
   3.11116058  0.02498913  1.42324832
   3.15970408  0.06103063  6.56946082
   4.49976708  4.49527663  3.56228332
   4.54831058  4.53131813  8.70849582
   7.79201458  0.06103063  3.56228332
   7.84055808  0.09707213  8.70849582
   9.18062108  4.53131813  5.70131832
   9.22916458  4.56735963 10.84753082
   0.03365731  0.02498913  3.42108474
   0.08220081  0.06103063  8.56729724
   1.42226381  4.49527663  5.56011974
   1.47080731  4.53131813 10.70633224
   4.71451131  0.06103063  5.56011974
   4.76305481  0.09707213 10.70633224
   6.10311781  4.53131813  7.69915474
   6.15166131  4.56735963 12.84536724
   0.92393620  2.97090707  1.42324832
   0.97247970  3.00694857  6.56946082
   2.31254270  7.44119457  3.56228332
   2.36108620  7.47723607  8.70849582
   5.60479020  3.00694857  3.56228332
   5.65333370  3.04299007  8.70849582
   6.99339670  7.47723607  5.70131832
   7.04194020  7.51327757 10.84753082
   4.44399342  9.02371037 15.28628168
   4.39544992  8.98766887 10.14006918
   3.05538692  4.55342287 13.14724668
   3.00684342  4.51738137  8.00103418
   9.12484742  9.05975187 17.42531668
   9.07630392  9.02371037 12.27910418
   7.73624092  4.58946437 15.28628168
   7.68769742  4.55342287 10.14006918
  12.15380719  9.02371037 10.28126776
  12.20235069  9.05975187 15.42748026
  10.76520069  4.55342287  8.14223276
  10.81374419  4.58946437 13.28844526
   7.47295319  8.98766887  8.14223276
   7.52149669  9.02371037 13.28844526
   6.08434669  4.51738137  6.00319776
   6.13289019  4.55342287 11.14941026
   9.92346530  1.64354643 15.28628168
   9.87492180  1.60750493 10.14006918
  11.31207180  6.11383393 17.42531668
  11.26352830  6.07779243 12.27910418
   5.24261130  1.60750493 13.14724668
   5.19406780  1.57146343  8.00103418
   6.63121780  6.07779243 15.28628168
   6.58267430  6.04175093 10.14006918
   3.85920022  2.86530006  5.94478086
   3.90774372  2.90134156 11.09099336
   5.24780672  7.33558756  8.08381586
   5.29635022  7.37162906 13.23002836
   8.54005422  2.90134156  8.08381586
   8.58859772  2.93738306 13.23002836
   9.92866072  7.37162906 10.22285086
   9.97720422  7.40767056 15.36906336
   2.25880378  1.67707044  3.47950164
   2.30734728  1.71311194  8.62571414
   3.64741028  6.14735794  5.61853664
   3.69595378  6.18339944 10.76474914
   6.93965778  1.71311194  5.61853664
   6.98820128  1.74915344 10.76474914
   8.32826428  6.18339944  7.75757164
   8.37680778  6.21944094 12.90378414
 


--------------------------------------------------------------------------------------------------------


 k-point   1 :   0.0000 0.0000 0.0000  plane waves:   35909
 k-point   2 :   0.5000 0.0000 0.0000  plane waves:   35906
 k-point   3 :   0.5000 0.5000 0.0000  plane waves:   35926
 k-point   4 :   0.5000 0.5000 0.5000  plane waves:   35860

 maximum and minimum number of plane-waves per node :     35926    35860

 maximum number of plane-waves:     35926
 maximum index in each direction: 
   IXMAX=   22   IYMAX=   22   IZMAX=   22
   IXMIN=  -22   IYMIN=  -22   IZMIN=  -22


 serial   3D FFT for wavefunctions
 parallel 3D FFT for charge:
    minimum data exchange during FFTs selected (reduces bandwidth)


 total amount of memory used by VASP MPI-rank0  1188398. kBytes
=======================================================================

   base      :      30000. kBytes
   nonlr-proj:      49876. kBytes
   fftplans  :     200616. kBytes
   grid      :     358473. kBytes
   one-center:        344. kBytes
   wavefun   :     549089. kBytes
 
     INWAV:  cpu time    0.0002: real time    0.0003
 Broyden mixing: mesh for mixing (old mesh)
   NGX = 45   NGY = 45   NGZ = 45
  (NGX  =180   NGY  =180   NGZ  =180)
  gives a total of  91125 points

 initial charge density was supplied:
 charge density of overlapping atoms calculated
 number of electron     352.0000000 magnetization 
 keeping initial charge density in first step


--------------------------------------------------------------------------------------------------------


 Maximum index for non-local projection operator          5171
 Maximum index for augmentation-charges         12948 (set IRDMAX)


--------------------------------------------------------------------------------------------------------


 First call to EWALD:  gamma=   0.187
 Maximum number of real-space cells 3x 3x 3
 Maximum number of reciprocal cells 3x 3x 3

    FEWALD:  cpu time    0.0811: real time    0.0811


--------------------------------------- Iteration      1(   1)  ---------------------------------------


    POTLOK:  cpu time    0.1378: real time    0.1409
    SETDIJ:  cpu time    0.1166: real time    0.1166
     EDDAV:  cpu time    3.1306: real time    3.1334
 BZINTS: Fermi energy:   16.499827;  352.000000 electrons
         Band energy: 0.128304E+04;  BLOECHL correction:   -0.040264
       DOS:  cpu time    0.0052: real time    0.0052
    --------------------------------------------
      LOOP:  cpu time    3.3902: real time    3.3961

 eigenvalue-minimisations  :  1864
 total energy-change (2. order) : 0.1382324E+04  (-0.1981573E+05)
 number of electron     352.0000000 magnetization 
 augmentation part      352.0000000 magnetization 

 Free energy of the ion-electron system (eV)
  ---------------------------------------------------
  alpha Z        PSCENC =      1043.19914055
  Ewald energy   TEWEN  =    -10066.79090068
  -Hartree energ DENC   =     -1039.34137683
  -exchange      EXHF   =         0.00000000
  -V(xc)+E(xc)   XCENC  =       902.46394524
  PAW double counting   =      5912.33983061    -5839.33960861
  entropy T*S    EENTRO =         0.00000000
  eigenvalues    EBANDS =      1283.03790781
  atomic energy  EATOM  =      9186.75495500
  Solvation  Ediel_sol  =         0.00000000
  ---------------------------------------------------
  free energy    TOTEN  =      1382.32389311 eV

  energy without entropy =     1382.32389311  energy(sigma->0) =     1382.32389311


--------------------------------------------------------------------------------------------------------




--------------------------------------- Iteration      1(   2)  ---------------------------------------


     EDDAV:  cpu time    3.6100: real time    3.6094
 BZINTS: Fermi energy:    3.901310;  352.000000 electrons
         Band energy:-0.813169E+03;  BLOECHL correction:   -0.000000
       DOS:  cpu time    0.0041: real time    0.0041
    --------------------------------------------
      LOOP:  cpu time    3.6142: real time    3.6135

 eigenvalue-minimisations  :  2308
 total energy-change (2. order) :-0.2096206E+04  (-0.1977476E+04)
 number of electron     352.0000000 magnetization 
 augmentation part      352.0000000 magnetization 

 Free energy of the ion-electron system (eV)
  ---------------------------------------------------
  alpha Z        PSCENC =      1043.19914055
  Ewald energy   TEWEN  =    -10066.79090068
  -Hartree energ DENC   =     -1039.34137683
  -exchange      EXHF   =         0.00000000
  -V(xc)+E(xc)   XCENC  =       902.46394524
  PAW double counting   =      5912.33983061    -5839.33960861
  entropy T*S    EENTRO =         0.00000000
  eigenvalues    EBANDS =      -813.16854609
  atomic energy  EATOM  =      9186.75495500
  Solvation  Ediel_sol  =         0.00000000
  ---------------------------------------------------
  free energy    TOTEN  =      -713.88256079 eV

  energy without entropy =     -713.88256079  energy(sigma->0) =     -713.88256079


--------------------------------------------------------------------------------------------------------




--------------------------------------- Iteration      1(   3)  ---------------------------------------


     EDDAV:  cpu time    3.4780: real time    3.4775
 BZINTS: Fermi energy:    3.226882;  352.000000 electrons
         Band energy:-0.938755E+03;  BLOECHL correction:   -0.000000
       DOS:  cpu time    0.0043: real time    0.0043
    --------------------------------------------
      LOOP:  cpu time    3.4823: real time    3.4818

 eigenvalue-minimisations  :  2200
 total energy-change (2. order) :-0.1255864E+03  (-0.1221284E+03)
 number of electron     352.0000000 magnetization 
 augmentation part      352.0000000 magnetization 

 Free energy of the ion-electron system (eV)
  ---------------------------------------------------
  alpha Z        PSCENC =      1043.19914055
  Ewald energy   TEWEN  =    -10066.79090068
  -Hartree energ DENC   =     -1039.34137683
  -exchange      EXHF   =         0.00000000
  -V(xc)+E(xc)   XCENC  =       902.46394524
  PAW double counting   =      5912.33983061    -5839.33960861
  entropy T*S    EENTRO =         0.00000000
  eigenvalues    EBANDS =      -938.75496465
  atomic energy  EATOM  =      9186.75495500
  Solvation  Ediel_sol  =         0.00000000
  ---------------------------------------------------
  free energy    TOTEN  =      -839.46897936 eV

  energy without entropy =     -839.46897936  energy(sigma->0) =     -839.46897936


--------------------------------------------------------------------------------------------------------




--------------------------------------- Iteration      1(   4)  ---------------------------------------


     EDDAV:  cpu time    3.4509: real time    3.4502
 BZINTS: Fermi energy:    3.207558;  352.000000 electrons
         Band energy:-0.941626E+03;  BLOECHL correction:   -0.000000
       DOS:  cpu time    0.0044: real time    0.0044
    --------------------------------------------
      LOOP:  cpu time    3.4553: real time    3.4546

 eigenvalue-minimisations  :  2192
 total energy-change (2. order) :-0.2871169E+01  (-0.2853254E+01)
 number of electron     352.0000000 magnetization 
 augmentation part      352.0000000 magnetization 

 Free energy of the ion-electron system (eV)
  ---------------------------------------------------
  alpha Z        PSCENC =      1043.19914055
  Ewald energy   TEWEN  =    -10066.79090068
  -Hartree energ DENC   =     -1039.34137683
  -exchange      EXHF   =         0.00000000
  -V(xc)+E(xc)   XCENC  =       902.46394524
  PAW double counting   =      5912.33983061    -5839.33960861
  entropy T*S    EENTRO =         0.00000000
  eigenvalues    EBANDS =      -941.62613382
  atomic energy  EATOM  =      9186.75495500
  Solvation  Ediel_sol  =         0.00000000
  ---------------------------------------------------
  free energy    TOTEN  =      -842.34014853 eV

  energy without entropy =     -842.34014853  energy(sigma->0) =     -842.34014853


--------------------------------------------------------------------------------------------------------




--------------------------------------- Iteration      1(   5)  ---------------------------------------


     EDDAV:  cpu time    3.4026: real time    3.4024
 BZINTS: Fermi energy:    3.206871;  352.000000 electrons
         Band energy:-0.941702E+03;  BLOECHL correction:    0.000000
       DOS:  cpu time    0.0047: real time    0.0047
    CHARGE:  cpu time    1.4590: real time    1.4586
    MIXING:  cpu time    0.0606: real time    0.0605
    --------------------------------------------
      LOOP:  cpu time    4.9268: real time    4.9262

 eigenvalue-minimisations  :  2152
 total energy-change (2. order) :-0.7556697E-01  (-0.7541004E-01)
 number of electron     352.0000001 magnetization 
 augmentation part        0.6559903 magnetization 

 Broyden mixing:
  rms(total) = 0.39453E+01    rms(broyden)= 0.39452E+01
  rms(prec ) = 0.53595E+01
  weight for this iteration     100.00

 Free energy of the ion-electron system (eV)
  ---------------------------------------------------
  alpha Z        PSCENC =      1043.19914055
  Ewald energy   TEWEN  =    -10066.79090068
  -Hartree energ DENC   =     -1039.34137683
  -exchange      EXHF   =         0.00000000
  -V(xc)+E(xc)   XCENC  =       902.46394524
  PAW double counting   =      5912.33983061    -5839.33960861
  entropy T*S    EENTRO =         0.00000000
  eigenvalues    EBANDS =      -941.70170079
  atomic energy  EATOM  =      9186.75495500
  Solvation  Ediel_sol  =         0.00000000
  ---------------------------------------------------
  free energy    TOTEN  =      -842.41571550 eV

  energy without entropy =     -842.41571550  energy(sigma->0) =     -842.41571550


--------------------------------------------------------------------------------------------------------




--------------------------------------- Iteration      1(   6)  ---------------------------------------


    POTLOK:  cpu time    0.1291: real time    0.1291
    SETDIJ:  cpu time    0.1125: real time    0.1125
    EDDIAG:  cpu time    0.6573: real time    0.6571
  RMM-DIIS:  cpu time    2.8285: real time    2.8073
    ORTHCH:  cpu time    0.0176: real time    0.0175
 BZINTS: Fermi energy:    3.539968;  352.000000 electrons
         Band energy:-0.719608E+03;  BLOECHL correction:   -0.028105
       DOS:  cpu time    0.0057: real time    0.0057
    CHARGE:  cpu time    1.4487: real time    1.4482
    MIXING:  cpu time    0.0587: real time    0.0587
    --------------------------------------------
      LOOP:  cpu time    5.2580: real time    5.2362

 eigenvalue-minimisations  :  1864
 total energy-change (2. order) : 0.3782235E+02  (-0.3476602E+01)
 number of electron     352.0000001 magnetization 
 augmentation part        0.5763032 magnetization 

 Broyden mixing:
  rms(total) = 0.22140E+01    rms(broyden)= 0.22140E+01
  rms(prec ) = 0.28454E+01
  weight for this iteration     100.00

 eigenvalues of (default mixing * dielectric matrix)
  average eigenvalue GAMMA=   2.1196
  2.1196

 Free energy of the ion-electron system (eV)
  ---------------------------------------------------
  alpha Z        PSCENC =      1043.19914055
  Ewald energy   TEWEN  =    -10066.79090068
  -Hartree energ DENC   =     -1230.39850462
  -exchange      EXHF   =         0.00000000
  -V(xc)+E(xc)   XCENC  =       914.55860234
  PAW double counting   =     13709.99491776   -13642.30356849
  entropy T*S    EENTRO =         0.00000000
  eigenvalues    EBANDS =      -719.60800440
  atomic energy  EATOM  =      9186.75495500
  Solvation  Ediel_sol  =         0.00000000
  ---------------------------------------------------
  free energy    TOTEN  =      -804.59336253 eV

  energy without entropy =     -804.59336253  energy(sigma->0) =     -804.59336253


--------------------------------------------------------------------------------------------------------




--------------------------------------- Iteration      1(   7)  ---------------------------------------


    POTLOK:  cpu time    0.1238: real time    0.1238
    SETDIJ:  cpu time    0.1118: real time    0.1117
    EDDIAG:  cpu time    0.6586: real time    0.6586
  RMM-DIIS:  cpu time    2.8107: real time    2.7906
    ORTHCH:  cpu time    0.0174: real time    0.0174
 BZINTS: Fermi energy:    4.145735;  352.000000 electrons
         Band energy:-0.499332E+03;  BLOECHL correction:   -0.130578
       DOS:  cpu time    0.0056: real time    0.0056
    CHARGE:  cpu time    1.4364: real time    1.4359
    MIXING:  cpu time    0.0597: real time    0.0596
    --------------------------------------------
      LOOP:  cpu time    5.2240: real time    5.2034

 eigenvalue-minimisations  :  1864
 total energy-change (2. order) : 0.1106283E+02  (-0.3385674E+01)
 number of electron     352.0000001 magnetization 
 augmentation part        0.4221023 magnetization 

 Broyden mixing:
  rms(total) = 0.52063E+00    rms(broyden)= 0.52063E+00
  rms(prec ) = 0.60326E+00
  weight for this iteration     100.00

 eigenvalues of (default mixing * dielectric matrix)
  average eigenvalue GAMMA=   1.7239
  1.1695  2.2783

 Free energy of the ion-electron system (eV)
  ---------------------------------------------------
  alpha Z        PSCENC =      1043.19914055
  Ewald energy   TEWEN  =    -10066.79090068
  -Hartree energ DENC   =     -1450.88431518
  -exchange      EXHF   =         0.00000000
  -V(xc)+E(xc)   XCENC  =       930.86415436
  PAW double counting   =     27704.14369417   -27641.48520980
  entropy T*S    EENTRO =         0.00000000
  eigenvalues    EBANDS =      -499.33204886
  atomic energy  EATOM  =      9186.75495500
  Solvation  Ediel_sol  =         0.00000000
  ---------------------------------------------------
  free energy    TOTEN  =      -793.53053043 eV

  energy without entropy =     -793.53053043  energy(sigma->0) =     -793.53053043


--------------------------------------------------------------------------------------------------------




--------------------------------------- Iteration      1(   8)  ---------------------------------------


    POTLOK:  cpu time    0.1286: real time    0.1287
    SETDIJ:  cpu time    0.1120: real time    0.1120
    EDDIAG:  cpu time    0.6578: real time    0.6576
  RMM-DIIS:  cpu time    2.8140: real time    2.7936
    ORTHCH:  cpu time    0.0175: real time    0.0175
 BZINTS: Fermi energy:    4.217432;  352.000000 electrons
         Band energy:-0.478376E+03;  BLOECHL correction:   -0.119332
       DOS:  cpu time    0.0056: real time    0.0056
    CHARGE:  cpu time    1.4394: real time    1.4390
    MIXING:  cpu time    0.0591: real time    0.0591
    --------------------------------------------
      LOOP:  cpu time    5.2341: real time    5.2130

 eigenvalue-minimisations  :  1864
 total energy-change (2. order) :-0.1691552E+00  (-0.3512837E+00)
 number of electron     352.0000001 magnetization 
 augmentation part        0.3659587 magnetization 

 Broyden mixing:
  rms(total) = 0.23273E+00    rms(broyden)= 0.23273E+00
  rms(prec ) = 0.27067E+00
  weight for this iteration     100.00

 eigenvalues of (default mixing * dielectric matrix)
  average eigenvalue GAMMA=   1.8120
  1.2547  2.3594  1.8221

 Free energy of the ion-electron system (eV)
  ---------------------------------------------------
  alpha Z        PSCENC =      1043.19914055
  Ewald energy   TEWEN  =    -10066.79090068
  -Hartree energ DENC   =     -1474.22039582
  -exchange      EXHF   =         0.00000000
  -V(xc)+E(xc)   XCENC  =       933.40558349
  PAW double counting   =     31762.35500151   -31700.02734002
  entropy T*S    EENTRO =         0.00000000
  eigenvalues    EBANDS =      -478.37572970
  atomic energy  EATOM  =      9186.75495500
  Solvation  Ediel_sol  =         0.00000000
  ---------------------------------------------------
  free energy    TOTEN  =      -793.69968566 eV

  energy without entropy =     -793.69968566  energy(sigma->0) =     -793.69968566


--------------------------------------------------------------------------------------------------------




--------------------------------------- Iteration      1(   9)  ---------------------------------------


    POTLOK:  cpu time    0.1226: real time    0.1227
    SETDIJ:  cpu time    0.1112: real time    0.1112
    EDDIAG:  cpu time    0.6555: real time    0.6556
  RMM-DIIS:  cpu time    2.7768: real time    2.7566
    ORTHCH:  cpu time    0.0175: real time    0.0175
 BZINTS: Fermi energy:    4.258049;  352.000000 electrons
         Band energy:-0.477877E+03;  BLOECHL correction:   -0.166562
       DOS:  cpu time    0.0058: real time    0.0058
    CHARGE:  cpu time    1.4251: real time    1.4247
    MIXING:  cpu time    0.0598: real time    0.0597
    --------------------------------------------
      LOOP:  cpu time    5.1743: real time    5.1537

 eigenvalue-minimisations  :  1864
 total energy-change (2. order) :-0.7297457E-01  (-0.3609705E-01)
 number of electron     352.0000001 magnetization 
 augmentation part        0.3458696 magnetization 

 Broyden mixing:
  rms(total) = 0.81503E-01    rms(broyden)= 0.81503E-01
  rms(prec ) = 0.11821E+00
  weight for this iteration     100.00

 eigenvalues of (default mixing * dielectric matrix)
  average eigenvalue GAMMA=   1.7313
  2.3882  2.3882  1.0744  1.0744

 Free energy of the ion-electron system (eV)
  ---------------------------------------------------
  alpha Z        PSCENC =      1043.19914055
  Ewald energy   TEWEN  =    -10066.79090068
  -Hartree energ DENC   =     -1475.47036419
  -exchange      EXHF   =         0.00000000
  -V(xc)+E(xc)   XCENC  =       933.86944945
  PAW double counting   =     33605.26042272   -33542.71854358
  entropy T*S    EENTRO =         0.00000000
  eigenvalues    EBANDS =      -477.87681952
  atomic energy  EATOM  =      9186.75495500
  Solvation  Ediel_sol  =         0.00000000
  ---------------------------------------------------
  free energy    TOTEN  =      -793.77266024 eV

  energy without entropy =     -793.77266024  energy(sigma->0) =     -793.77266024


--------------------------------------------------------------------------------------------------------




--------------------------------------- Iteration      1(  10)  ---------------------------------------


    POTLOK:  cpu time    0.1227: real time    0.1227
    SETDIJ:  cpu time    0.1201: real time    0.1200
    EDDIAG:  cpu time    0.6611: real time    0.6610
  RMM-DIIS:  cpu time    2.7745: real time    2.7543
    ORTHCH:  cpu time    0.0175: real time    0.0175
 BZINTS: Fermi energy:    4.222680;  352.000000 electrons
         Band energy:-0.484161E+03;  BLOECHL correction:   -0.133346
       DOS:  cpu time    0.0068: real time    0.0068
    CHARGE:  cpu time    1.4176: real time    1.4171
    MIXING:  cpu time    0.0642: real time    0.0642
    --------------------------------------------
      LOOP:  cpu time    5.1845: real time    5.1637

 eigenvalue-minimisations  :  1864
 total energy-change (2. order) : 0.2984287E-01  (-0.1322084E-01)
 number of electron     352.0000001 magnetization 
 augmentation part        0.3374790 magnetization 

 Broyden mixing:
  rms(total) = 0.31269E-01    rms(broyden)= 0.31268E-01
  rms(prec ) = 0.53918E-01
  weight for this iteration     100.00

 eigenvalues of (default mixing * dielectric matrix)
  average eigenvalue GAMMA=   1.6385
  2.5089  1.9682  1.7404  0.9875  0.9875

 Free energy of the ion-electron system (eV)
  ---------------------------------------------------
  alpha Z        PSCENC =      1043.19914055
  Ewald energy   TEWEN  =    -10066.79090068
  -Hartree energ DENC   =     -1469.04368094
  -exchange      EXHF   =         0.00000000
  -V(xc)+E(xc)   XCENC  =       933.52480908
  PAW double counting   =     33706.30916404   -33643.53504835
  entropy T*S    EENTRO =         0.00000000
  eigenvalues    EBANDS =      -484.16125607
  atomic energy  EATOM  =      9186.75495500
  Solvation  Ediel_sol  =         0.00000000
  ---------------------------------------------------
  free energy    TOTEN  =      -793.74281737 eV

  energy without entropy =     -793.74281737  energy(sigma->0) =     -793.74281737


--------------------------------------------------------------------------------------------------------




--------------------------------------- Iteration      1(  11)  ---------------------------------------


    POTLOK:  cpu time    0.1241: real time    0.1241
    SETDIJ:  cpu time    0.1119: real time    0.1119
    EDDIAG:  cpu time    0.6572: real time    0.6571
  RMM-DIIS:  cpu time    2.8647: real time    2.8438
    ORTHCH:  cpu time    0.0175: real time    0.0175
 BZINTS: Fermi energy:    4.232317;  352.000000 electrons
         Band energy:-0.481565E+03;  BLOECHL correction:   -0.143708
       DOS:  cpu time    0.0060: real time    0.0060
    CHARGE:  cpu time    1.4494: real time    1.4489
    MIXING:  cpu time    0.0639: real time    0.0638
    --------------------------------------------
      LOOP:  cpu time    5.2946: real time    5.2730

 eigenvalue-minimisations  :  1873
 total energy-change (2. order) :-0.6298449E-02  (-0.2401362E-02)
 number of electron     352.0000001 magnetization 
 augmentation part        0.3349000 magnetization 

 Broyden mixing:
  rms(total) = 0.92729E-02    rms(broyden)= 0.92727E-02
  rms(prec ) = 0.11100E-01
  weight for this iteration     100.00

 eigenvalues of (default mixing * dielectric matrix)
  average eigenvalue GAMMA=   1.6037
  2.4483  2.4483  1.7114  1.1094  0.9523  0.9523

 Free energy of the ion-electron system (eV)
  ---------------------------------------------------
  alpha Z        PSCENC =      1043.19914055
  Ewald energy   TEWEN  =    -10066.79090068
  -Hartree energ DENC   =     -1471.78193370
  -exchange      EXHF   =         0.00000000
  -V(xc)+E(xc)   XCENC  =       933.68897524
  PAW double counting   =     33896.22949995   -33833.48410364
  entropy T*S    EENTRO =         0.00000000
  eigenvalues    EBANDS =      -481.56474855
  atomic energy  EATOM  =      9186.75495500
  Solvation  Ediel_sol  =         0.00000000
  ---------------------------------------------------
  free energy    TOTEN  =      -793.74911582 eV

  energy without entropy =     -793.74911582  energy(sigma->0) =     -793.74911582


--------------------------------------------------------------------------------------------------------




--------------------------------------- Iteration      1(  12)  ---------------------------------------


    POTLOK:  cpu time    0.1270: real time    0.1270
    SETDIJ:  cpu time    0.1126: real time    0.1126
    EDDIAG:  cpu time    0.6665: real time    0.6663
  RMM-DIIS:  cpu time    2.8556: real time    2.8342
    ORTHCH:  cpu time    0.0178: real time    0.0177
 BZINTS: Fermi energy:    4.230473;  352.000000 electrons
         Band energy:-0.481965E+03;  BLOECHL correction:   -0.142846
       DOS:  cpu time    0.0060: real time    0.0060
    CHARGE:  cpu time    1.4295: real time    1.4290
    MIXING:  cpu time    0.0668: real time    0.0668
    --------------------------------------------
      LOOP:  cpu time    5.2818: real time    5.2595

 eigenvalue-minimisations  :  1898
 total energy-change (2. order) : 0.8844425E-04  (-0.5513292E-03)
 number of electron     352.0000001 magnetization 
 augmentation part        0.3329283 magnetization 

 Broyden mixing:
  rms(total) = 0.45186E-02    rms(broyden)= 0.45186E-02
  rms(prec ) = 0.58419E-02
  weight for this iteration     100.00

 eigenvalues of (default mixing * dielectric matrix)
  average eigenvalue GAMMA=   1.6627
  2.5259  2.5259  1.8554  1.8554  0.9920  0.9920  0.8924

 Free energy of the ion-electron system (eV)
  ---------------------------------------------------
  alpha Z        PSCENC =      1043.19914055
  Ewald energy   TEWEN  =    -10066.79090068
  -Hartree energ DENC   =     -1471.37126955
  -exchange      EXHF   =         0.00000000
  -V(xc)+E(xc)   XCENC  =       933.65734588
  PAW double counting   =     33876.10432807   -33813.33804927
  entropy T*S    EENTRO =         0.00000000
  eigenvalues    EBANDS =      -481.96457737
  atomic energy  EATOM  =      9186.75495500
  Solvation  Ediel_sol  =         0.00000000
  ---------------------------------------------------
  free energy    TOTEN  =      -793.74902737 eV

  energy without entropy =     -793.74902737  energy(sigma->0) =     -793.74902737


--------------------------------------------------------------------------------------------------------




--------------------------------------- Iteration      1(  13)  ---------------------------------------


    POTLOK:  cpu time    0.1247: real time    0.1248
    SETDIJ:  cpu time    0.1115: real time    0.1115
    EDDIAG:  cpu time    0.6544: real time    0.6542
  RMM-DIIS:  cpu time    2.8113: real time    2.7880
    ORTHCH:  cpu time    0.0174: real time    0.0174
 BZINTS: Fermi energy:    4.231088;  352.000000 electrons
         Band energy:-0.482022E+03;  BLOECHL correction:   -0.142342
       DOS:  cpu time    0.0058: real time    0.0058
    CHARGE:  cpu time    1.4376: real time    1.4373
    MIXING:  cpu time    0.0632: real time    0.0632
    --------------------------------------------
      LOOP:  cpu time    5.2260: real time    5.2021

 eigenvalue-minimisations  :  1871
 total energy-change (2. order) : 0.3421536E-03  (-0.1134361E-03)
 number of electron     352.0000001 magnetization 
 augmentation part        0.3319515 magnetization 

 Broyden mixing:
  rms(total) = 0.27918E-02    rms(broyden)= 0.27918E-02
  rms(prec ) = 0.48483E-02
  weight for this iteration     100.00

 eigenvalues of (default mixing * dielectric matrix)
  average eigenvalue GAMMA=   1.6725
  3.1133  2.6783  2.1237  1.6087  0.9382  0.9382  0.9898  0.9898

 Free energy of the ion-electron system (eV)
  ---------------------------------------------------
  alpha Z        PSCENC =      1043.19914055
  Ewald energy   TEWEN  =    -10066.79090068
  -Hartree energ DENC   =     -1471.32946459
  -exchange      EXHF   =         0.00000000
  -V(xc)+E(xc)   XCENC  =       933.66830205
  PAW double counting   =     33880.10329246   -33817.33234811
  entropy T*S    EENTRO =         0.00000000
  eigenvalues    EBANDS =      -482.02166190
  atomic energy  EATOM  =      9186.75495500
  Solvation  Ediel_sol  =         0.00000000
  ---------------------------------------------------
  free energy    TOTEN  =      -793.74868522 eV

  energy without entropy =     -793.74868522  energy(sigma->0) =     -793.74868522


--------------------------------------------------------------------------------------------------------




--------------------------------------- Iteration      1(  14)  ---------------------------------------


    POTLOK:  cpu time    0.1228: real time    0.1228
    SETDIJ:  cpu time    0.1116: real time    0.1116
    EDDIAG:  cpu time    0.6579: real time    0.6578
  RMM-DIIS:  cpu time    2.8468: real time    2.8235
    ORTHCH:  cpu time    0.0177: real time    0.0177
 BZINTS: Fermi energy:    4.231685;  352.000000 electrons
         Band energy:-0.481794E+03;  BLOECHL correction:   -0.142944
       DOS:  cpu time    0.0059: real time    0.0059
    CHARGE:  cpu time    1.4627: real time    1.4622
    MIXING:  cpu time    0.0658: real time    0.0658
    --------------------------------------------
      LOOP:  cpu time    5.2912: real time    5.2671

 eigenvalue-minimisations  :  1864
 total energy-change (2. order) :-0.5412963E-03  (-0.3973766E-04)
 number of electron     352.0000001 magnetization 
 augmentation part        0.3316609 magnetization 

 Broyden mixing:
  rms(total) = 0.69022E-03    rms(broyden)= 0.69019E-03
  rms(prec ) = 0.10293E-02
  weight for this iteration     100.00

 eigenvalues of (default mixing * dielectric matrix)
  average eigenvalue GAMMA=   1.5862
  2.7154  2.7029  1.8322  1.4783  1.3953  1.3953  0.9540  0.9540  0.8483

 Free energy of the ion-electron system (eV)
  ---------------------------------------------------
  alpha Z        PSCENC =      1043.19914055
  Ewald energy   TEWEN  =    -10066.79090068
  -Hartree energ DENC   =     -1471.56519357
  -exchange      EXHF   =         0.00000000
  -V(xc)+E(xc)   XCENC  =       933.67867700
  PAW double counting   =     33873.16428184   -33810.39588781
  entropy T*S    EENTRO =         0.00000000
  eigenvalues    EBANDS =      -481.79429886
  atomic energy  EATOM  =      9186.75495500
  Solvation  Ediel_sol  =         0.00000000
  ---------------------------------------------------
  free energy    TOTEN  =      -793.74922652 eV

  energy without entropy =     -793.74922652  energy(sigma->0) =     -793.74922652


--------------------------------------------------------------------------------------------------------




--------------------------------------- Iteration      1(  15)  ---------------------------------------


    POTLOK:  cpu time    0.1227: real time    0.1229
    SETDIJ:  cpu time    0.1114: real time    0.1114
    EDDIAG:  cpu time    0.6527: real time    0.6526
  RMM-DIIS:  cpu time    2.8279: real time    2.8075
    ORTHCH:  cpu time    0.0175: real time    0.0175
 BZINTS: Fermi energy:    4.231505;  352.000000 electrons
         Band energy:-0.481815E+03;  BLOECHL correction:   -0.142908
       DOS:  cpu time    0.0060: real time    0.0060
    CHARGE:  cpu time    1.4403: real time    1.4399
    MIXING:  cpu time    0.0660: real time    0.0660
    --------------------------------------------
      LOOP:  cpu time    5.2446: real time    5.2236

 eigenvalue-minimisations  :  1881
 total energy-change (2. order) : 0.1357385E-04  (-0.8768179E-05)
 number of electron     352.0000001 magnetization 
 augmentation part        0.3315083 magnetization 

 Broyden mixing:
  rms(total) = 0.68184E-03    rms(broyden)= 0.68183E-03
  rms(prec ) = 0.81125E-03
  weight for this iteration     100.00

 eigenvalues of (default mixing * dielectric matrix)
  average eigenvalue GAMMA=   1.6403
  2.7719  2.6500  2.6500  2.0612  1.7081  1.0097  1.0097  0.8752  0.8752  0.7925

 Free energy of the ion-electron system (eV)
  ---------------------------------------------------
  alpha Z        PSCENC =      1043.19914055
  Ewald energy   TEWEN  =    -10066.79090068
  -Hartree energ DENC   =     -1471.54377455
  -exchange      EXHF   =         0.00000000
  -V(xc)+E(xc)   XCENC  =       933.67744471
  PAW double counting   =     33878.01257089   -33815.24379456
  entropy T*S    EENTRO =         0.00000000
  eigenvalues    EBANDS =      -481.81485432
  atomic energy  EATOM  =      9186.75495500
  Solvation  Ediel_sol  =         0.00000000
  ---------------------------------------------------
  free energy    TOTEN  =      -793.74921294 eV

  energy without entropy =     -793.74921294  energy(sigma->0) =     -793.74921294


--------------------------------------------------------------------------------------------------------




--------------------------------------- Iteration      1(  16)  ---------------------------------------


    POTLOK:  cpu time    0.1227: real time    0.1240
    SETDIJ:  cpu time    0.1118: real time    0.1118
    EDDIAG:  cpu time    0.6553: real time    0.6551
  RMM-DIIS:  cpu time    2.8141: real time    2.7931
    ORTHCH:  cpu time    0.0175: real time    0.0175
 BZINTS: Fermi energy:    4.231618;  352.000000 electrons
         Band energy:-0.481804E+03;  BLOECHL correction:   -0.142964
       DOS:  cpu time    0.0058: real time    0.0058
    CHARGE:  cpu time    1.4182: real time    1.4178
    MIXING:  cpu time    0.0669: real time    0.0669
    --------------------------------------------
      LOOP:  cpu time    5.2124: real time    5.1920

 eigenvalue-minimisations  :  1838
 total energy-change (2. order) :-0.5015317E-04  (-0.1920146E-05)
 number of electron     352.0000001 magnetization 
 augmentation part        0.3314186 magnetization 

 Broyden mixing:
  rms(total) = 0.31714E-03    rms(broyden)= 0.31714E-03
  rms(prec ) = 0.46861E-03
  weight for this iteration     100.00

 eigenvalues of (default mixing * dielectric matrix)
  average eigenvalue GAMMA=   1.5784
  3.0611  2.4454  2.4454  1.8485  1.8485  0.9714  0.9714  0.9996  0.9996  0.9173
  0.8543

 Free energy of the ion-electron system (eV)
  ---------------------------------------------------
  alpha Z        PSCENC =      1043.19914055
  Ewald energy   TEWEN  =    -10066.79090068
  -Hartree energ DENC   =     -1471.55535893
  -exchange      EXHF   =         0.00000000
  -V(xc)+E(xc)   XCENC  =       933.67887173
  PAW double counting   =     33876.55608000   -33813.78804493
  entropy T*S    EENTRO =         0.00000000
  eigenvalues    EBANDS =      -481.80400584
  atomic energy  EATOM  =      9186.75495500
  Solvation  Ediel_sol  =         0.00000000
  ---------------------------------------------------
  free energy    TOTEN  =      -793.74926309 eV

  energy without entropy =     -793.74926309  energy(sigma->0) =     -793.74926309


--------------------------------------------------------------------------------------------------------




--------------------------------------- Iteration      1(  17)  ---------------------------------------


    POTLOK:  cpu time    0.1235: real time    0.1235
    SETDIJ:  cpu time    0.1165: real time    0.1165
    EDDIAG:  cpu time    0.6572: real time    0.6570
  RMM-DIIS:  cpu time    2.0379: real time    2.0332
    ORTHCH:  cpu time    0.0175: real time    0.0175
 BZINTS: Fermi energy:    4.231649;  352.000000 electrons
         Band energy:-0.481802E+03;  BLOECHL correction:   -0.142958
       DOS:  cpu time    0.0057: real time    0.0057
    CHARGE:  cpu time    1.4360: real time    1.4356
    MIXING:  cpu time    0.0725: real time    0.0725
    --------------------------------------------
      LOOP:  cpu time    4.4668: real time    4.4614

 eigenvalue-minimisations  :  1333
 total energy-change (2. order) : 0.8455741E-05  (-0.3336881E-06)
 number of electron     352.0000001 magnetization 
 augmentation part        0.3313921 magnetization 

 Broyden mixing:
  rms(total) = 0.19588E-03    rms(broyden)= 0.19588E-03
  rms(prec ) = 0.28723E-03
  weight for this iteration     100.00

 eigenvalues of (default mixing * dielectric matrix)
  average eigenvalue GAMMA=   1.6422
  3.2980  2.8211  2.3456  2.3456  1.8132  1.2456  1.2456  1.0507  0.9308  0.9308
  0.9144  0.7653

 Free energy of the ion-electron system (eV)
  ---------------------------------------------------
  alpha Z        PSCENC =      1043.19914055
  Ewald energy   TEWEN  =    -10066.79090068
  -Hartree energ DENC   =     -1471.55829258
  -exchange      EXHF   =         0.00000000
  -V(xc)+E(xc)   XCENC  =       933.67931012
  PAW double counting   =     33876.65835050   -33813.89028924
  entropy T*S    EENTRO =         0.00000000
  eigenvalues    EBANDS =      -481.80152832
  atomic energy  EATOM  =      9186.75495500
  Solvation  Ediel_sol  =         0.00000000
  ---------------------------------------------------
  free energy    TOTEN  =      -793.74925464 eV

  energy without entropy =     -793.74925464  energy(sigma->0) =     -793.74925464


--------------------------------------------------------------------------------------------------------




--------------------------------------- Iteration      1(  18)  ---------------------------------------


    POTLOK:  cpu time    0.1239: real time    0.1239
    SETDIJ:  cpu time    0.1222: real time    0.1224
    EDDIAG:  cpu time    0.6539: real time    0.6538
  RMM-DIIS:  cpu time    1.8236: real time    1.8175
    ORTHCH:  cpu time    0.0175: real time    0.0175
 BZINTS: Fermi energy:    4.231634;  352.000000 electrons
         Band energy:-0.481810E+03;  BLOECHL correction:   -0.142927
       DOS:  cpu time    0.0062: real time    0.0062
    CHARGE:  cpu time    1.4504: real time    1.4498
    MIXING:  cpu time    0.0752: real time    0.0752
    --------------------------------------------
      LOOP:  cpu time    4.2728: real time    4.2663

[...]
   0.895E+01 0.665E+01 0.451E+02   -.905E+01 -.672E+01 -.502E+02   0.921E-01 0.684E-01 0.512E+01   -.260E-05 -.193E-05 -.104E-04
   0.895E+01 0.665E+01 0.451E+02   -.905E+01 -.672E+01 -.502E+02   0.921E-01 0.684E-01 0.512E+01   -.260E-05 -.193E-05 -.104E-04
   0.172E+02 0.340E+02 0.265E+02   -.186E+02 -.384E+02 -.287E+02   0.141E+01 0.442E+01 0.217E+01   -.428E-05 -.748E-05 -.659E-05
   0.172E+02 0.340E+02 0.265E+02   -.186E+02 -.384E+02 -.287E+02   0.141E+01 0.442E+01 0.217E+01   -.428E-05 -.748E-05 -.659E-05
   0.172E+02 0.340E+02 0.265E+02   -.186E+02 -.384E+02 -.287E+02   0.141E+01 0.442E+01 0.217E+01   -.428E-05 -.748E-05 -.659E-05
   0.172E+02 0.340E+02 0.265E+02   -.186E+02 -.384E+02 -.287E+02   0.141E+01 0.442E+01 0.217E+01   -.428E-05 -.748E-05 -.659E-05
   0.172E+02 0.340E+02 0.265E+02   -.186E+02 -.384E+02 -.287E+02   0.141E+01 0.442E+01 0.217E+01   -.428E-05 -.748E-05 -.659E-05
   0.172E+02 0.340E+02 0.265E+02   -.186E+02 -.384E+02 -.287E+02   0.141E+01 0.442E+01 0.217E+01   -.428E-05 -.748E-05 -.659E-05
   0.172E+02 0.340E+02 0.265E+02   -.186E+02 -.384E+02 -.287E+02   0.141E+01 0.442E+01 0.217E+01   -.428E-05 -.748E-05 -.659E-05
   0.172E+02 0.340E+02 0.265E+02   -.186E+02 -.384E+02 -.287E+02   0.141E+01 0.442E+01 0.217E+01   -.428E-05 -.748E-05 -.659E-05
   -.375E+02 -.665E+01 -.265E+02   0.421E+02 0.672E+01 0.287E+02   -.464E+01 -.684E-01 -.217E+01   0.840E-05 0.193E-05 0.659E-05
   -.375E+02 -.665E+01 -.265E+02   0.421E+02 0.672E+01 0.287E+02   -.464E+01 -.684E-01 -.217E+01   0.840E-05 0.193E-05 0.659E-05
   -.375E+02 -.665E+01 -.265E+02   0.421E+02 0.672E+01 0.287E+02   -.464E+01 -.684E-01 -.217E+01   0.840E-05 0.193E-05 0.659E-05
   -.375E+02 -.665E+01 -.265E+02   0.421E+02 0.672E+01 0.287E+02   -.464E+01 -.684E-01 -.217E+01   0.840E-05 0.193E-05 0.659E-05
   -.375E+02 -.665E+01 -.265E+02   0.421E+02 0.672E+01 0.287E+02   -.464E+01 -.684E-01 -.217E+01   0.840E-05 0.193E-05 0.659E-05
   -.375E+02 -.665E+01 -.265E+02   0.421E+02 0.672E+01 0.287E+02   -.464E+01 -.684E-01 -.217E+01   0.840E-05 0.193E-05 0.659E-05
   -.375E+02 -.665E+01 -.265E+02   0.421E+02 0.672E+01 0.287E+02   -.464E+01 -.684E-01 -.217E+01   0.840E-05 0.193E-05 0.659E-05
   -.375E+02 -.665E+01 -.265E+02   0.421E+02 0.672E+01 0.287E+02   -.464E+01 -.684E-01 -.217E+01   0.840E-05 0.193E-05 0.659E-05
   -.895E+01 -.665E+01 -.451E+02   0.905E+01 0.672E+01 0.502E+02   -.921E-01 -.684E-01 -.512E+01   0.260E-05 0.193E-05 0.104E-04
   -.895E+01 -.665E+01 -.451E+02   0.905E+01 0.672E+01 0.502E+02   -.921E-01 -.684E-01 -.512E+01   0.260E-05 0.193E-05 0.104E-04
   -.895E+01 -.665E+01 -.451E+02   0.905E+01 0.672E+01 0.502E+02   -.921E-01 -.684E-01 -.512E+01   0.260E-05 0.193E-05 0.104E-04
   -.895E+01 -.665E+01 -.451E+02   0.905E+01 0.672E+01 0.502E+02   -.921E-01 -.684E-01 -.512E+01   0.260E-05 0.193E-05 0.104E-04
   -.895E+01 -.665E+01 -.451E+02   0.905E+01 0.672E+01 0.502E+02   -.921E-01 -.684E-01 -.512E+01   0.260E-05 0.193E-05 0.104E-04
   -.895E+01 -.665E+01 -.451E+02   0.905E+01 0.672E+01 0.502E+02   -.921E-01 -.684E-01 -.512E+01   0.260E-05 0.193E-05 0.104E-04
   -.895E+01 -.665E+01 -.451E+02   0.905E+01 0.672E+01 0.502E+02   -.921E-01 -.684E-01 -.512E+01   0.260E-05 0.193E-05 0.104E-04
   -.895E+01 -.665E+01 -.451E+02   0.905E+01 0.672E+01 0.502E+02   -.921E-01 -.684E-01 -.512E+01   0.260E-05 0.193E-05 0.104E-04
   -.172E+02 -.340E+02 -.265E+02   0.186E+02 0.384E+02 0.287E+02   -.141E+01 -.442E+01 -.217E+01   0.428E-05 0.748E-05 0.659E-05
   -.172E+02 -.340E+02 -.265E+02   0.186E+02 0.384E+02 0.287E+02   -.141E+01 -.442E+01 -.217E+01   0.428E-05 0.748E-05 0.659E-05
   -.172E+02 -.340E+02 -.265E+02   0.186E+02 0.384E+02 0.287E+02   -.141E+01 -.442E+01 -.217E+01   0.428E-05 0.748E-05 0.659E-05
   -.172E+02 -.340E+02 -.265E+02   0.186E+02 0.384E+02 0.287E+02   -.141E+01 -.442E+01 -.217E+01   0.428E-05 0.748E-05 0.659E-05
   -.172E+02 -.340E+02 -.265E+02   0.186E+02 0.384E+02 0.287E+02   -.141E+01 -.442E+01 -.217E+01   0.428E-05 0.748E-05 0.659E-05
   -.172E+02 -.340E+02 -.265E+02   0.186E+02 0.384E+02 0.287E+02   -.141E+01 -.442E+01 -.217E+01   0.428E-05 0.748E-05 0.659E-05
   -.172E+02 -.340E+02 -.265E+02   0.186E+02 0.384E+02 0.287E+02   -.141E+01 -.442E+01 -.217E+01   0.428E-05 0.748E-05 0.659E-05
   -.172E+02 -.340E+02 -.265E+02   0.186E+02 0.384E+02 0.287E+02   -.141E+01 -.442E+01 -.217E+01   0.428E-05 0.748E-05 0.659E-05
   0.157E+02 0.116E+02 0.241E+02   -.160E+02 -.119E+02 -.247E+02   0.391E+00 0.290E+00 0.602E+00   0.691E-07 0.513E-07 0.106E-06
   0.157E+02 0.116E+02 0.241E+02   -.160E+02 -.119E+02 -.247E+02   0.391E+00 0.290E+00 0.602E+00   0.691E-07 0.513E-07 0.106E-06
   0.157E+02 0.116E+02 0.241E+02   -.160E+02 -.119E+02 -.247E+02   0.391E+00 0.290E+00 0.602E+00   0.691E-07 0.513E-07 0.106E-06
   0.157E+02 0.116E+02 0.241E+02   -.160E+02 -.119E+02 -.247E+02   0.391E+00 0.290E+00 0.602E+00   0.691E-07 0.513E-07 0.106E-06
   0.157E+02 0.116E+02 0.241E+02   -.160E+02 -.119E+02 -.247E+02   0.391E+00 0.290E+00 0.602E+00   0.691E-07 0.513E-07 0.106E-06
   0.157E+02 0.116E+02 0.241E+02   -.160E+02 -.119E+02 -.247E+02   0.391E+00 0.290E+00 0.602E+00   0.691E-07 0.513E-07 0.106E-06
   0.157E+02 0.116E+02 0.241E+02   -.160E+02 -.119E+02 -.247E+02   0.391E+00 0.290E+00 0.602E+00   0.691E-07 0.513E-07 0.106E-06
   0.157E+02 0.116E+02 0.241E+02   -.160E+02 -.119E+02 -.247E+02   0.391E+00 0.290E+00 0.602E+00   0.691E-07 0.513E-07 0.106E-06
   -.157E+02 -.116E+02 -.241E+02   0.160E+02 0.119E+02 0.247E+02   -.391E+00 -.290E+00 -.602E+00   -.691E-07 -.513E-07 -.106E-06
   -.157E+02 -.116E+02 -.241E+02   0.160E+02 0.119E+02 0.247E+02   -.391E+00 -.290E+00 -.602E+00   -.691E-07 -.513E-07 -.106E-06
   -.157E+02 -.116E+02 -.241E+02   0.160E+02 0.119E+02 0.247E+02   -.391E+00 -.290E+00 -.602E+00   -.691E-07 -.513E-07 -.106E-06
   -.157E+02 -.116E+02 -.241E+02   0.160E+02 0.119E+02 0.247E+02   -.391E+00 -.290E+00 -.602E+00   -.691E-07 -.513E-07 -.106E-06
   -.157E+02 -.116E+02 -.241E+02   0.160E+02 0.119E+02 0.247E+02   -.391E+00 -.290E+00 -.602E+00   -.691E-07 -.513E-07 -.106E-06
   -.157E+02 -.116E+02 -.241E+02   0.160E+02 0.119E+02 0.247E+02   -.391E+00 -.290E+00 -.602E+00   -.691E-07 -.513E-07 -.106E-06
   -.157E+02 -.116E+02 -.241E+02   0.160E+02 0.119E+02 0.247E+02   -.391E+00 -.290E+00 -.602E+00   -.691E-07 -.513E-07 -.106E-06
   -.157E+02 -.116E+02 -.241E+02   0.160E+02 0.119E+02 0.247E+02   -.391E+00 -.290E+00 -.602E+00   -.691E-07 -.513E-07 -.106E-06
 -----------------------------------------------------------------------------------------------
   -.363E-11 -.164E-10 -.221E-10   0.128E-12 0.226E-12 0.831E-12   0.251E-13 0.516E-14 0.190E-13   -.180E-11 0.482E-12 -.154E-11
 
 
 POSITION                                       TOTAL-FORCE (eV/Angst)
 -----------------------------------------------------------------------------------
      2.65084      3.61988      6.51898        -0.001123      0.000437      0.000143
      2.70008      3.65645     11.66569        -0.001123      0.000437      0.000143
      4.03999      8.09018      8.65886        -0.001123      0.000437      0.000143
      4.08924      8.12674     13.80557        -0.001123      0.000437      0.000143
      7.33186      3.65645      8.65886        -0.001123      0.000437      0.000143
      7.38110      3.69301     13.80557        -0.001123      0.000437      0.000143
      8.72101      8.12674     10.79874        -0.001123      0.000437      0.000143
      8.77026      8.16330     15.94544        -0.001123      0.000437      0.000143
      4.87553      3.61988      5.07477         0.000588      0.000437     -0.000967
      4.92477      3.65645     10.22148         0.000588      0.000437     -0.000967
      6.26468      8.09018      7.21465         0.000588      0.000437     -0.000967
      6.31393      8.12674     12.36135         0.000588      0.000437     -0.000967
      9.55655      3.65645      7.21465         0.000588      0.000437     -0.000967
      9.60579      3.69301     12.36135         0.000588      0.000437     -0.000967
     10.94570      8.12674      9.35452         0.000588      0.000437     -0.000967
     10.99495      8.16330     14.50123         0.000588      0.000437     -0.000967
      4.23196      1.49031      6.51898         0.000093     -0.001201      0.000143
      4.28120      1.52688     11.66569         0.000093     -0.001201      0.000143
      5.62111      5.96061      8.65886         0.000093     -0.001201      0.000143
      5.67036      5.99717     13.80557         0.000093     -0.001201      0.000143
      8.91298      1.52688      8.65886         0.000093     -0.001201      0.000143
      8.96222      1.56344     13.80557         0.000093     -0.001201      0.000143
     10.30213      5.99717     10.79874         0.000093     -0.001201      0.000143
     10.35138      6.03374     15.94544         0.000093     -0.001201      0.000143
      3.46858      0.92354      2.90748         0.001123     -0.000437     -0.000143
      3.51783      0.96010      8.05419         0.001123     -0.000437     -0.000143
      4.85774      5.39384      5.04736         0.001123     -0.000437     -0.000143
      4.90698      5.43040     10.19407         0.001123     -0.000437     -0.000143
      8.14960      0.96010      5.04736         0.001123     -0.000437     -0.000143
      8.19885      0.99666     10.19407         0.001123     -0.000437     -0.000143
      9.53876      5.43040      7.18724         0.001123     -0.000437     -0.000143
      9.58800      5.46696     12.33395         0.001123     -0.000437     -0.000143
      1.24389      0.92354      4.35169        -0.000588     -0.000437      0.000967
      1.29314      0.96010      9.49840        -0.000588     -0.000437      0.000967
      2.63305      5.39384      6.49157        -0.000588     -0.000437      0.000967
      2.68229      5.43040     11.63828        -0.000588     -0.000437      0.000967
      5.92491      0.96010      6.49157        -0.000588     -0.000437      0.000967
      5.97416      0.99666     11.63828        -0.000588     -0.000437      0.000967
      7.31407      5.43040      8.63145        -0.000588     -0.000437      0.000967
      7.36331      5.46696     13.77816        -0.000588     -0.000437      0.000967
      1.88746      3.05311      2.90748        -0.000093      0.001201     -0.000143
      1.93671      3.08967      8.05419        -0.000093      0.001201     -0.000143
      3.27662      7.52340      5.04736        -0.000093      0.001201     -0.000143
      3.32586      7.55997     10.19407        -0.000093      0.001201     -0.000143
      6.56848      3.08967      5.04736        -0.000093      0.001201     -0.000143
      6.61773      3.12623     10.19407        -0.000093      0.001201     -0.000143
      7.95764      7.55997      7.18724        -0.000093      0.001201     -0.000143
      8.00688      7.59653     12.33395        -0.000093      0.001201     -0.000143
      3.11022      0.02620      1.42462        -0.000455     -0.001306     -0.002128
      3.15947      0.06277      6.57133        -0.000455     -0.001306     -0.002128
      4.49938      4.49650      3.56450        -0.000455     -0.001306     -0.002128
      4.54862      4.53306      8.71121        -0.000455     -0.001306     -0.002128
      7.79124      0.06277      3.56450        -0.000455     -0.001306     -0.002128
      7.84049      0.09933      8.71121        -0.000455     -0.001306     -0.002128
      9.18040      4.53306      5.70438        -0.000455     -0.001306     -0.002128
      9.22964      4.56962     10.85108        -0.000455     -0.001306     -0.002128
      0.03529      0.02620      3.42079        -0.001759     -0.001306     -0.001282
      0.08454      0.06277      8.56749        -0.001759     -0.001306     -0.001282
      1.42445      4.49650      5.56067        -0.001759     -0.001306     -0.001282
      1.47369      4.53306     10.70737        -0.001759     -0.001306     -0.001282
      4.71631      0.06277      5.56067        -0.001759     -0.001306     -0.001282
      4.76556      0.09933     10.70737        -0.001759     -0.001306     -0.001282
      6.10547      4.53306      7.70054        -0.001759     -0.001306     -0.001282
      6.15471      4.56962     12.84725        -0.001759     -0.001306     -0.001282
      0.92483      2.96966      1.42462        -0.001382     -0.000058     -0.002128
      0.97407      3.00622      6.57133        -0.001382     -0.000058     -0.002128
      2.31398      7.43995      3.56450        -0.001382     -0.000058     -0.002128
      2.36323      7.47652      8.71121        -0.001382     -0.000058     -0.002128
      5.60585      3.00622      3.56450        -0.001382     -0.000058     -0.002128
      5.65509      3.04278      8.71121        -0.001382     -0.000058     -0.002128
      6.99500      7.47652      5.70438        -0.001382     -0.000058     -0.002128
      7.04425      7.51308     10.85108        -0.001382     -0.000058     -0.002128
      4.44760      9.02408     15.28843         0.000455      0.001306      0.002128
      4.39835      8.98751     10.14172         0.000455      0.001306      0.002128
      3.05844      4.55378     13.14855         0.000455      0.001306      0.002128
      3.00920      4.51722      8.00184         0.000455      0.001306      0.002128
      9.12862      9.06064     17.42831         0.000455      0.001306      0.002128
      9.07937      9.02408     12.28160         0.000455      0.001306      0.002128
      7.73946      4.59034     15.28843         0.000455      0.001306      0.002128
      7.69022      4.55378     10.14172         0.000455      0.001306      0.002128
     12.15430      9.02408     10.28543         0.001759      0.001306      0.001282
     12.20355      9.06064     15.43214         0.001759      0.001306      0.001282
     10.76515      4.55378      8.14555         0.001759      0.001306      0.001282
     10.81439      4.59034     13.29226         0.001759      0.001306      0.001282
      7.47328      8.98751      8.14555         0.001759      0.001306      0.001282
      7.52253      9.02408     13.29226         0.001759      0.001306      0.001282
      6.08413      4.51722      6.00568         0.001759      0.001306      0.001282
      6.13337      4.55378     11.15238         0.001759      0.001306      0.001282
      9.92486      1.64689     15.28843         0.001382      0.000058      0.002128
      9.87561      1.61033     10.14172         0.001382      0.000058      0.002128
     11.31401      6.11718     17.42831         0.001382      0.000058      0.002128
     11.26477      6.08062     12.28160         0.001382      0.000058      0.002128
      5.24384      1.61033     13.14855         0.001382      0.000058      0.002128
      5.19459      1.57376      8.00184         0.001382      0.000058      0.002128
      6.63299      6.08062     15.28843         0.001382      0.000058      0.002128
      6.58375      6.04406     10.14172         0.001382      0.000058      0.002128
      3.85540      2.86247      5.93892        -0.000511     -0.000379     -0.000787
      3.90464      2.89904     11.08563        -0.000511     -0.000379     -0.000787
      5.24455      7.33277      8.07880        -0.000511     -0.000379     -0.000787
      5.29379      7.36933     13.22550        -0.000511     -0.000379     -0.000787
      8.53642      2.89904      8.07880        -0.000511     -0.000379     -0.000787
      8.58566      2.93560     13.22550        -0.000511     -0.000379     -0.000787
      9.92557      7.36933     10.21868        -0.000511     -0.000379     -0.000787
      9.97481      7.40590     15.36538        -0.000511     -0.000379     -0.000787
      2.26402      1.68095      3.48754         0.000511      0.000379      0.000787
      2.31327      1.71751      8.63425         0.000511      0.000379      0.000787
      3.65318      6.15124      5.62742         0.000511      0.000379      0.000787
      3.70242      6.18781     10.77413         0.000511      0.000379      0.000787
      6.94504      1.71751      5.62742         0.000511      0.000379      0.000787
      6.99429      1.75407     10.77413         0.000511      0.000379      0.000787
      8.33420      6.18781      7.76730         0.000511      0.000379      0.000787
      8.38344      6.22437     12.91401         0.000511      0.000379      0.000787
 -----------------------------------------------------------------------------------
    total drift:                               -0.000000     -0.000000     -0.000000


--------------------------------------------------------------------------------------------------------



  FREE ENERGIE OF THE ION-ELECTRON SYSTEM (eV)
  ---------------------------------------------------
  free  energy   TOTEN  =      -793.76533911 eV

  energy  without entropy=     -793.76533911  energy(sigma->0) =     -793.76533911
 
 d Force = 0.7043223E-07[ 0.700E-07, 0.708E-07]  d Energy = 0.6887306E-05-0.682E-05
 d Force = 0.1376523E-03[ 0.138E-03, 0.138E-03]  d Ewald  = 0.2985630E-03-0.161E-03


--------------------------------------------------------------------------------------------------------


    POTLOK:  cpu time    0.2544: real time    0.2544


--------------------------------------------------------------------------------------------------------




--------------------------------------------------------------------------------------------------------


  
 reached required accuracy - stopping structural energy minimisation
     LOOP+:  cpu time   18.3436: real time   18.3391
 -----------------------------------------------------------------------------
|                                                                             |
|           W    W    AA    RRRRR   N    N  II  N    N   GGGG   !!!           |
|           W    W   A  A   R    R  NN   N  II  NN   N  G    G  !!!           |
|           W    W  A    A  R    R  N N  N  II  N N  N  G       !!!           |
|           W WW W  AAAAAA  RRRRR   N  N N  II  N  N N  G  GGG   !            |
|           WW  WW  A    A  R   R   N   NN  II  N   NN  G    G                |
|           W    W  A    A  R    R  N    N  II  N    N   GGGG   !!!           |
|                                                                             |
|     Tetrahedron method does not include variations of the Fermi             |
|     occupations, so forces and stress will be inaccurate. We suggest        |
|     using a different smearing scheme ISMEAR = 1 or 2 for metals in         |
|     relaxations.                                                            |
|                                                                             |
 -----------------------------------------------------------------------------

    4ORBIT:  cpu time    0.0000: real time    0.0000
 BZINTS: Fermi energy:    4.227289;  352.000000 electrons
         Band energy:-0.480457E+03;  BLOECHL correction:   -0.141113

 total amount of memory used by VASP MPI-rank0  1188398. kBytes
=======================================================================

   base      :      30000. kBytes
   nonlr-proj:      49876. kBytes
   fftplans  :     200616. kBytes
   grid      :     358473. kBytes
   one-center:        344. kBytes
   wavefun   :     549089. kBytes
 
  
  
 General timing and accounting informations for this job:
 ========================================================
  
                  Total CPU time used (sec):      625.063
                            User time (sec):      526.233
                          System time (sec):       98.831
                         Elapsed time (sec):      627.822
  
                   Maximum memory used (kb):     3222460.
                   Average memory used (kb):          N/A
  
                          Minor page faults:     10812645
                          Major page faults:            0
                 Voluntary context switches:        96223
