<?xml version="1.0" encoding="ISO-8859-1"?>
<modeling>
 <generator>
  <i name="program" type="string">vasp </i>
  <i name="version" type="string">6.2.0  </i>
  <i name="subversion" type="string">18Jan21 (build Feb 25 2021 07:51:20) complex                          parallel </i>
  <i name="platform" type="string">LinuxPGI </i>
  <i name="date" type="string">2022 04 13 </i>
  <i name="time" type="string">12:49:33 </i>
 </generator>
 <incar>
  <i type="string" name="PREC">Accurate</i>
  <i type="string" name="ALGO">Fast</i>
  <i type="int" name="IBRION">     2</i>
  <i name="EDIFF">      0.00000100</i>
  <i type="int" name="NSW">   300</i>
  <i type="int" name="ISIF">     4</i>
  <i name="ENCUT">    700.00000000</i>
  <i type="string" name="LREAL">Auto</i>
  <i type="int" name="ISMEAR">    -5</i>
  <i name="SIGMA">      0.05000000</i>
  <i type="logical" name="LWAVE"> F  </i>
 </incar>
 <primitive_cell>
  <structure name="primitive_cell" >
   <crystal>
    <varray name="basis" >
     <v>       4.68085400       0.03604150       2.13903500 </v>
     <v>       1.38860650       4.47028750       2.13903500 </v>
     <v>       0.04854350       0.03604150       5.14621250 </v>
    </varray>
    <i name="volume">    106.71147460 </i>
    <varray name="rec_basis" >
     <v>       0.21485932      -0.06599316      -0.00156455 </v>
     <v>      -0.00101567       0.22476339      -0.00156455 </v>
     <v>      -0.08888461      -0.06599321       0.19561829 </v>
    </varray>
   </crystal>
   <varray name="positions" >
    <v>       0.32079000       0.80103000       0.80103000 </v>
    <v>       0.80103000       0.80103000       0.32079000 </v>
    <v>       0.80103000       0.32079000       0.80103000 </v>
    <v>       0.67921000       0.19897000       0.19897000 </v>
    <v>       0.19897000       0.19897000       0.67921000 </v>
    <v>       0.19897000       0.67921000       0.19897000 </v>
    <v>       0.66458600       0.00023000       0.00023000 </v>
    <v>       0.00023000       0.00023000       0.66458600 </v>
    <v>       0.00023000       0.66458600       0.00023000 </v>
    <v>       0.33541400       0.99977000       0.99977000 </v>
    <v>       0.99977000       0.99977000       0.33541400 </v>
    <v>       0.99977000       0.33541400       0.99977000 </v>
    <v>       0.63079400       0.63079400       0.63079400 </v>
    <v>       0.36920600       0.36920600       0.36920600 </v>
   </varray>
  </structure>
  <varray name="primitive_index" >
   <v type="int" >        1 </v>
   <v type="int" >        9 </v>
   <v type="int" >       17 </v>
   <v type="int" >       28 </v>
   <v type="int" >       35 </v>
   <v type="int" >       42 </v>
   <v type="int" >       52 </v>
   <v type="int" >       59 </v>
   <v type="int" >       66 </v>
   <v type="int" >       76 </v>
   <v type="int" >       83 </v>
   <v type="int" >       90 </v>
   <v type="int" >       97 </v>
   <v type="int" >      105 </v>
  </varray>
 </primitive_cell>
 <kpoints>
  <generation param="Gamma">
   <v type="int" name="divisions">       2        2        2 </v>
   <v name="usershift">      0.00000000       0.00000000       0.00000000 </v>
   <v name="genvec1">      0.50000000      -0.00000000      -0.00000000 </v>
   <v name="genvec2">      0.00000000       0.50000000       0.00000000 </v>
   <v name="genvec3">     -0.00000000       0.00000000       0.50000000 </v>
   <v name="shift">      0.00000000       0.00000000       0.00000000 </v>
  </generation>
  <varray name="kpointlist" >
   <v>       0.00000000       0.00000000       0.00000000 </v>
   <v>       0.50000000       0.00000000       0.00000000 </v>
   <v>       0.50000000       0.50000000       0.00000000 </v>
   <v>       0.50000000       0.50000000       0.50000000 </v>
  </varray>
  <varray name="weights" >
   <v>       0.12500000 </v>
   <v>       0.37500000 </v>
   <v>       0.37500000 </v>
   <v>       0.12500000 </v>
  </varray>
  <varray name="tetrahedronlist"  type="int" >
   <v type="int" >       12        1        2        3        4 </v>
   <v type="int" >       12        2        2        3        3 </v>
   <v type="int" >       12        1        2        2        3 </v>
   <v type="int" >       12        2        3        3        4 </v>
  </varray>
  <i name="volumeweight">      0.02083333 </i>
 </kpoints>
 <parameters>
  <separator name="general" >
   <i type="string" name="SYSTEM">unknown system</i>
   <i type="logical" name="LCOMPAT"> F  </i>
  </separator>
  <separator name="electronic" >
   <i type="string" name="PREC">accura</i>
   <i name="ENMAX">    700.00000000</i>
   <i name="ENAUG">    644.87300000</i>
   <i name="EDIFF">      0.00000100</i>
   <i type="int" name="IALGO">    68</i>
   <i type="int" name="IWAVPR">    11</i>
   <i type="int" name="NBANDS">   233</i>
   <i type="int" name="NBANDSLOW">    -1</i>
   <i type="int" name="NBANDSHIGH">    -1</i>
   <i name="NELECT">    352.00000000</i>
   <i type="int" name="TURBO">     0</i>
   <i type="int" name="IRESTART">     0</i>
   <i type="int" name="NREBOOT">     0</i>
   <i type="int" name="NMIN">     0</i>
   <i name="EREF">      0.00000000</i>
   <separator name="electronic smearing" >
    <i type="int" name="ISMEAR">    -5</i>
    <i name="SIGMA">      0.05000000</i>
    <i name="KSPACING">      0.50000000</i>
    <i type="logical" name="KGAMMA"> T  </i>
    <i type="logical" name="KBLOWUP"> T  </i>
   </separator>
   <separator name="electronic projectors" >
    <i type="logical" name="LREAL"> T  </i>
    <v name="ROPT">     -0.00025000     -0.00025000</v>
    <i type="int" name="LMAXPAW">  -100</i>
    <i type="int" name="LMAXMIX">     2</i>
    <i type="logical" name="NLSPLINE"> F  </i>
   </separator>
   <separator name="electronic startup" >
    <i type="int" name="ISTART">     0</i>
    <i type="int" name="ICHARG">     2</i>
    <i type="int" name="INIWAV">     1</i>
   </separator>
   <separator name="electronic spin" >
    <i type="int" name="ISPIN">     1</i>
    <i type="logical" name="LNONCOLLINEAR"> F  </i>
    <v name="MAGMOM">      1.00000000      1.00000000      1.00000000      1.00000000      1.00000000      1.00000000      1.00000000      1.00000000      1.00000000      1.00000000      1.00000000      1.00000000      1.00000000      1.00000000      1.00000000      1.00000000      1.00000000      1.00000000      1.00000000      1.00000000
      1.00000000      1.00000000      1.00000000      1.00000000      1.00000000      1.00000000      1.00000000      1.00000000      1.00000000      1.00000000      1.00000000      1.00000000      1.00000000      1.00000000      1.00000000      1.00000000      1.00000000      1.00000000      1.00000000      1.00000000
      1.00000000      1.00000000      1.00000000      1.00000000      1.00000000      1.00000000      1.00000000      1.00000000      1.00000000      1.00000000      1.00000000      1.00000000      1.00000000      1.00000000      1.00000000      1.00000000      1.00000000      1.00000000      1.00000000      1.00000000
      1.00000000      1.00000000      1.00000000      1.00000000      1.00000000      1.00000000      1.00000000      1.00000000      1.00000000      1.00000000      1.00000000      1.00000000      1.00000000      1.00000000      1.00000000      1.00000000      1.00000000      1.00000000      1.00000000      1.00000000
      1.00000000      1.00000000      1.00000000      1.00000000      1.00000000      1.00000000      1.00000000      1.00000000      1.00000000      1.00000000      1.00000000      1.00000000      1.00000000      1.00000000      1.00000000      1.00000000      1.00000000      1.00000000      1.00000000      1.00000000
      1.00000000      1.00000000      1.00000000      1.00000000      1.00000000      1.00000000      1.00000000      1.00000000      1.00000000      1.00000000      1.00000000      1.00000000</v>
    <i name="NUPDOWN">     -1.00000000</i>
    <i type="logical" name="LSORBIT"> F  </i>
    <v name="SAXIS">      0.00000000      0.00000000      1.00000000</v>
    <i type="logical" name="LSPIRAL"> F  </i>
    <v name="QSPIRAL">      0.00000000      0.00000000      0.00000000</v>
    <i type="logical" name="LZEROZ"> F  </i>
   </separator>
   <separator name="electronic exchange-correlation" >
    <i type="logical" name="LASPH"> F  </i>
    <i type="logical" name="LMETAGGA"> F  </i>
   </separator>
   <separator name="electronic convergence" >
    <i type="int" name="NELM">    60</i>
    <i type="int" name="NELMDL">    -5</i>
    <i type="int" name="NELMIN">     2</i>
    <i name="ENINI">    700.00000000</i>
    <separator name="electronic convergence detail" >
     <i type="logical" name="LDIAG"> T  </i>
     <i type="logical" name="LSUBROT"> F  </i>
     <i name="WEIMIN">      0.00100000</i>
     <i name="EBREAK">      0.00000000</i>
     <i name="DEPER">      0.30000000</i>
     <i type="int" name="NRMM">     4</i>
     <i name="TIME">      0.40000000</i>
    </separator>
   </separator>
   <separator name="electronic mixer" >
    <i name="AMIX">      0.40000000</i>
    <i name="BMIX">      1.00000000</i>
    <i name="AMIN">      0.10000000</i>
    <i name="AMIX_MAG">      1.60000000</i>
    <i name="BMIX_MAG">      1.00000000</i>
    <separator name="electronic mixer details" >
     <i type="int" name="IMIX">     4</i>
     <i type="logical" name="MIXFIRST"> F  </i>
     <i type="int" name="MAXMIX">   -45</i>
     <i name="WC">    100.00000000</i>
     <i type="int" name="INIMIX">     1</i>
     <i type="int" name="MIXPRE">     1</i>
     <i type="int" name="MREMOVE">     5</i>
    </separator>
   </separator>
   <separator name="electronic dipolcorrection" >
    <i type="logical" name="LDIPOL"> F  </i>
    <i type="logical" name="LMONO"> F  </i>
    <i type="int" name="IDIPOL">     0</i>
    <i name="EPSILON">      1.00000000</i>
    <v name="DIPOL">   -100.00000000   -100.00000000   -100.00000000</v>
    <i name="EFIELD">      0.00000000</i>
   </separator>
  </separator>
  <separator name="grids" >
   <i type="int" name="NGX">    90</i>
   <i type="int" name="NGY">    90</i>
   <i type="int" name="NGZ">    90</i>
   <i type="int" name="NGXF">   180</i>
   <i type="int" name="NGYF">   180</i>
   <i type="int" name="NGZF">   180</i>
   <i type="logical" name="ADDGRID"> F  </i>
  </separator>
  <separator name="ionic" >
   <i type="int" name="NSW">   300</i>
   <i type="int" name="IBRION">     2</i>
   <i type="int" name="MDALGO">     0</i>
   <i type="int" name="ISIF">     4</i>
   <i name="PSTRESS">      0.00000000</i>
   <i name="EDIFFG">      0.00001000</i>
   <i type="int" name="NFREE">     1</i>
   <i name="POTIM">      0.50000000</i>
   <i name="SMASS">     -3.00000000</i>
   <i name="SCALEE">      1.00000000</i>
  </separator>
  <separator name="ionic md" >
   <i name="TEBEG">      0.00010000</i>
   <i name="TEEND">      0.00010000</i>
   <i type="int" name="NBLOCK">     1</i>
   <i type="int" name="KBLOCK">   300</i>
   <i type="int" name="NPACO">   256</i>
   <i name="APACO">     16.00000000</i>
  </separator>
  <separator name="symmetry" >
   <i type="int" name="ISYM">     2</i>
   <i name="SYMPREC">      0.00001000</i>
  </separator>
  <separator name="dos" >
   <i type="int" name="LORBIT">     0</i>
   <v name="RWIGS">     -1.00000000     -1.00000000</v>
   <i type="int" name="NEDOS">   301</i>
   <i name="EMIN">     10.00000000</i>
   <i name="EMAX">    -10.00000000</i>
   <i name="EFERMI">      0.00000000</i>
  </separator>
  <separator name="writing" >
   <i type="int" name="NWRITE">     2</i>
   <i type="logical" name="LWAVE"> F  </i>
   <i type="logical" name="LDOWNSAMPLE"> F  </i>
   <i type="logical" name="LCHARG"> T  </i>
   <i type="logical" name="LPARD"> F  </i>
   <i type="logical" name="LVTOT"> F  </i>
   <i type="logical" name="LVHAR"> F  </i>
   <i type="logical" name="LELF"> F  </i>
   <i type="logical" name="LOPTICS"> F  </i>
   <v name="STM">      0.00000000      0.00000000      0.00000000      0.00000000      0.00000000      0.00000000      0.00000000</v>
  </separator>
  <separator name="performance" >
   <i type="int" name="NPAR">     1</i>
   <i type="int" name="NSIM">     4</i>
   <i type="int" name="NBLK">    -1</i>
   <i type="logical" name="LPLANE"> T  </i>
   <i type="logical" name="LSCALAPACK"> T  </i>
   <i type="logical" name="LSCAAWARE"> F  </i>
   <i type="logical" name="LSCALU"> F  </i>
   <i type="logical" name="LASYNC"> F  </i>
   <i type="logical" name="LORBITALREAL"> F  </i>
  </separator>
  <separator name="miscellaneous" >
   <i type="int" name="IDIOT">     3</i>
   <i type="int" name="PHON_NSTRUCT">    -1</i>
   <i type="logical" name="LMUSIC"> F  </i>
   <v name="POMASS">     10.81100000     12.01100000</v>
   <v name="DARWINR">      0.00000000      0.00000000</v>
   <v name="DARWINV">      1.00000000      1.00000000</v>
   <i type="logical" name="LCORR"> T  </i>
  </separator>
  <i type="logical" name="GGA_COMPAT"> T  </i>
  <i type="logical" name="LBERRY"> F  </i>
  <i type="int" name="ICORELEVEL">     0</i>
  <i type="logical" name="LDAU"> F  </i>
  <i type="int" name="I_CONSTRAINED_M">     0</i>
  <separator name="electronic exchange-correlation" >
   <i type="string" name="GGA">--</i>
   <i type="int" name="VOSKOWN">     0</i>
   <i type="logical" name="LHFCALC"> F  </i>
   <i type="string" name="PRECFOCK"></i>
   <i type="logical" name="LSYMGRAD"> F  </i>
   <i type="logical" name="LHFONE"> F  </i>
   <i type="logical" name="LRHFCALC"> F  </i>
   <i type="logical" name="LTHOMAS"> F  </i>
   <i type="logical" name="LMODELHF"> F  </i>
   <i type="logical" name="LFOCKACE"> F  </i>
   <i name="ENCUT4O">     -1.00000000</i>
   <i type="int" name="EXXOEP">     0</i>
   <i type="int" name="FOURORBIT">     0</i>
   <i name="AEXX">      0.00000000</i>
   <i name="HFALPHA">      0.00000000</i>
   <i name="MCALPHA">      0.00000000</i>
   <i name="ALDAX">      1.00000000</i>
   <i name="AGGAX">      1.00000000</i>
   <i name="ALDAC">      1.00000000</i>
   <i name="AGGAC">      1.00000000</i>
   <i type="int" name="NKREDX">     1</i>
   <i type="int" name="NKREDY">     1</i>
   <i type="int" name="NKREDZ">     1</i>
   <i type="logical" name="SHIFTRED"> F  </i>
   <i type="logical" name="ODDONLY"> F  </i>
   <i type="logical" name="EVENONLY"> F  </i>
   <i type="int" name="LMAXFOCK">     0</i>
   <i type="int" name="NMAXFOCKAE">     0</i>
   <i type="logical" name="LFOCKAEDFT"> F  </i>
   <i name="HFSCREEN">      0.00000000</i>
   <i name="HFSCREENC">      0.00000000</i>
   <i type="int" name="NBANDSGWLOW">     0</i>
  </separator>
  <separator name="vdW DFT" >
   <i type="logical" name="LUSE_VDW"> F  </i>
   <i name="Zab_VDW">     -0.84910000</i>
   <i name="PARAM1">      0.12340000</i>
   <i name="PARAM2">      1.00000000</i>
   <i name="PARAM3">      0.00000000</i>
  </separator>
  <separator name="model GW" >
   <i type="int" name="MODEL_GW">     0</i>
   <i name="MODEL_EPS0">      4.57334891</i>
   <i name="MODEL_ALPHA">      1.00000000</i>
  </separator>
  <separator name="linear response parameters" >
   <i type="logical" name="LEPSILON"> F  </i>
   <i type="logical" name="LRPA"> F  </i>
   <i type="logical" name="LNABLA"> F  </i>
   <i type="logical" name="LVEL"> F  </i>
   <i type="int" name="KINTER">     0</i>
   <i name="CSHIFT">      0.10000000</i>
   <i name="OMEGAMAX">     -1.00000000</i>
   <i name="DEG_THRESHOLD">      0.00200000</i>
   <i name="RTIME">     -0.10000000</i>
   <i name="WPLASMAI">      0.00000000</i>
   <v name="DFIELD">      0.00000000      0.00000000      0.00000000</v>
   <v name="WPLASMA">      0.00000000      0.00000000      0.00000000      0.00000000      0.00000000      0.00000000      0.00000000      0.00000000      0.00000000</v>
  </separator>
  <separator name="orbital magnetization" >
   <i type="logical" name="NUCIND"> F  </i>
   <v name="MAGPOS">      0.00000000      0.00000000      0.00000000</v>
   <i type="logical" name="LNICSALL"> T  </i>
   <i type="logical" name="ORBITALMAG"> F  </i>
   <i type="logical" name="LMAGBLOCH"> F  </i>
   <i type="logical" name="LCHIMAG"> F  </i>
   <i type="logical" name="LGAUGE"> T  </i>
   <i type="int" name="MAGATOM">     0</i>
   <v name="MAGDIPOL">      0.00000000      0.00000000      0.00000000</v>
   <v name="AVECCONST">      0.00000000      0.00000000      0.00000000</v>
  </separator>
  <separator name="response functions" >
   <i type="logical" name="LFINITE_TEMPERATURE"> F  </i>
   <i type="logical" name="LADDER"> F  </i>
   <i type="logical" name="LRPAFORCE"> F  </i>
   <i type="logical" name="LFXC"> F  </i>
   <i type="logical" name="LHARTREE"> T  </i>
   <i type="int" name="IBSE">     0</i>
   <v type="int" name="KPOINT">    -1     0     0     0</v>
   <i type="logical" name="LTCTC"> F  </i>
   <i type="logical" name="LTCTE"> F  </i>
   <i type="logical" name="LTETE"> F  </i>
   <i type="logical" name="LTRIPLET"> F  </i>
   <i type="logical" name="LFXCEPS"> F  </i>
   <i type="logical" name="LFXHEG"> F  </i>
   <i type="int" name="NATURALO">     2</i>
   <i type="logical" name="LHOLEGF"> F  </i>
   <i type="logical" name="L2ORDER"> F  </i>
   <i type="logical" name="LDMP1"> F  </i>
   <i type="logical" name="LMP2LT"> F  </i>
   <i type="logical" name="LSMP2LT"> F  </i>
   <i type="logical" name="LGWLF"> F  </i>
   <i name="ENCUTGW">     -2.00000000</i>
   <i name="ENCUTGWSOFT">     -2.00000000</i>
   <i name="ENCUTLF">     -1.00000000</i>
   <i type="logical" name="LESF_SPLINES"> F  </i>
   <i type="int" name="LMAXMP2">    -1</i>
   <i name="SCISSOR">      0.00000000</i>
   <i type="int" name="NOMEGA">     0</i>
   <i type="int" name="NOMEGAR">     0</i>
   <i type="int" name="NBANDSGW">    -1</i>
   <i type="int" name="NBANDSO">    -1</i>
   <i type="int" name="NBANDSV">    -1</i>
   <i type="int" name="NELM">     1</i>
   <i type="int" name="NELMHF">     1</i>
   <i type="int" name="DIM">     3</i>
   <i type="int" name="IESPILON">     4</i>
   <i type="int" name="ANTIRES">     0</i>
   <i name="OMEGAMAX">    -30.00000000</i>
   <i name="OMEGAMIN">    -30.00000000</i>
   <i name="OMEGATL">   -200.00000000</i>
   <i type="int" name="OMEGAGRID">     0</i>
   <i name="CSHIFT">     -0.10000000</i>
   <i type="logical" name="LSELFENERGY"> F  </i>
   <i type="logical" name="LSPECTRAL"> F  </i>
   <i type="logical" name="LSPECTRALGW"> F  </i>
   <i type="logical" name="LSINGLES"> F  </i>
   <i type="logical" name="LFERMIGW"> F  </i>
   <i type="logical" name="ODDONLYGW"> F  </i>
   <i type="logical" name="EVENONLYGW"> F  </i>
   <i type="int" name="NKREDLFX">     1</i>
   <i type="int" name="NKREDLFY">     1</i>
   <i type="int" name="NKREDLFZ">     1</i>
   <i type="int" name="MAXMEM">  2800</i>
   <i type="int" name="TELESCOPE">     0</i>
   <i type="int" name="NTAUPAR">    -1</i>
   <i type="int" name="NOMEGAPAR">    -1</i>
   <i name="DAMP_NEWTON">      0.80000001</i>
   <i name="LAMBDA">      1.00000000</i>
  </separator>
  <separator name="External order field" >
   <i name="OFIELD_KAPPA">      0.00000000</i>
   <v name="OFIELD_K">      0.00000000      0.00000000      0.00000000</v>
   <i name="OFIELD_Q6_NEAR">      0.00000000</i>
   <i name="OFIELD_Q6_FAR">      0.00000000</i>
   <i name="OFIELD_A">      0.00000000</i>
  </separator>
 </parameters>
 <atominfo>
  <atoms>     112 </atoms>
  <types>       2 </types>
  <array name="atoms" >
   <dimension dim="1">ion</dimension>
   <field type="string">element</field>
   <field type="int">atomtype</field>
   <set>
    <rc><c>B </c><c>   1</c></rc>
    <rc><c>B </c><c>   1</c></rc>
    <rc><c>B </c><c>   1</c></rc>
    <rc><c>B </c><c>   1</c></rc>
    <rc><c>B </c><c>   1</c></rc>
    <rc><c>B </c><c>   1</c></rc>
    <rc><c>B </c><c>   1</c></rc>
    <rc><c>B </c><c>   1</c></rc>
    <rc><c>B </c><c>   1</c></rc>
    <rc><c>B </c><c>   1</c></rc>
    <rc><c>B </c><c>   1</c></rc>
    <rc><c>B </c><c>   1</c></rc>
    <rc><c>B </c><c>   1</c></rc>
    <rc><c>B </c><c>   1</c></rc>
    <rc><c>B </c><c>   1</c></rc>
    <rc><c>B </c><c>   1</c></rc>
    <rc><c>B </c><c>   1</c></rc>
    <rc><c>B </c><c>   1</c></rc>
    <rc><c>B </c><c>   1</c></rc>
    <rc><c>B </c><c>   1</c></rc>
    <rc><c>B </c><c>   1</c></rc>
    <rc><c>B </c><c>   1</c></rc>
    <rc><c>B </c><c>   1</c></rc>
    <rc><c>B </c><c>   1</c></rc>
    <rc><c>B </c><c>   1</c></rc>
    <rc><c>B </c><c>   1</c></rc>
    <rc><c>B </c><c>   1</c></rc>
    <rc><c>B </c><c>   1</c></rc>
    <rc><c>B </c><c>   1</c></rc>
    <rc><c>B </c><c>   1</c></rc>
    <rc><c>B </c><c>   1</c></rc>
    <rc><c>B </c><c>   1</c></rc>
    <rc><c>B </c><c>   1</c></rc>
    <rc><c>B </c><c>   1</c></rc>
    <rc><c>B </c><c>   1</c></rc>
    <rc><c>B </c><c>   1</c></rc>
    <rc><c>B </c><c>   1</c></rc>
    <rc><c>B </c><c>   1</c></rc>
    <rc><c>B </c><c>   1</c></rc>
    <rc><c>B </c><c>   1</c></rc>
    <rc><c>B </c><c>   1</c></rc>
    <rc><c>B </c><c>   1</c></rc>
    <rc><c>B </c><c>   1</c></rc>
    <rc><c>B </c><c>   1</c></rc>
    <rc><c>B </c><c>   1</c></rc>
    <rc><c>B </c><c>   1</c></rc>
    <rc><c>B </c><c>   1</c></rc>
    <rc><c>B </c><c>   1</c></rc>
    <rc><c>B </c><c>   1</c></rc>
    <rc><c>B </c><c>   1</c></rc>
    <rc><c>B </c><c>   1</c></rc>
    <rc><c>B </c><c>   1</c></rc>
    <rc><c>B </c><c>   1</c></rc>
    <rc><c>B </c><c>   1</c></rc>
    <rc><c>B </c><c>   1</c></rc>
    <rc><c>B </c><c>   1</c></rc>
    <rc><c>B </c><c>   1</c></rc>
    <rc><c>B </c><c>   1</c></rc>
    <rc><c>B </c><c>   1</c></rc>
    <rc><c>B </c><c>   1</c></rc>
    <rc><c>B </c><c>   1</c></rc>
    <rc><c>B </c><c>   1</c></rc>
    <rc><c>B </c><c>   1</c></rc>
    <rc><c>B </c><c>   1</c></rc>
    <rc><c>B </c><c>   1</c></rc>
    <rc><c>B </c><c>   1</c></rc>
    <rc><c>B </c><c>   1</c></rc>
    <rc><c>B </c><c>   1</c></rc>
    <rc><c>B </c><c>   1</c></rc>
    <rc><c>B </c><c>   1</c></rc>
    <rc><c>B </c><c>   1</c></rc>
    <rc><c>B </c><c>   1</c></rc>
    <rc><c>B </c><c>   1</c></rc>
    <rc><c>B </c><c>   1</c></rc>
    <rc><c>B </c><c>   1</c></rc>
    <rc><c>B </c><c>   1</c></rc>
    <rc><c>B </c><c>   1</c></rc>
    <rc><c>B </c><c>   1</c></rc>
    <rc><c>B </c><c>   1</c></rc>
    <rc><c>B </c><c>   1</c></rc>
    <rc><c>B </c><c>   1</c></rc>
    <rc><c>B </c><c>   1</c></rc>
    <rc><c>B </c><c>   1</c></rc>
    <rc><c>B </c><c>   1</c></rc>
    <rc><c>B </c><c>   1</c></rc>
    <rc><c>B </c><c>   1</c></rc>
    <rc><c>B </c><c>   1</c></rc>
    <rc><c>B </c><c>   1</c></rc>
    <rc><c>B </c><c>   1</c></rc>
    <rc><c>B </c><c>   1</c></rc>
    <rc><c>B </c><c>   1</c></rc>
    <rc><c>B </c><c>   1</c></rc>
    <rc><c>B </c><c>   1</c></rc>
    <rc><c>B </c><c>   1</c></rc>
    <rc><c>B </c><c>   1</c></rc>
    <rc><c>B </c><c>   1</c></rc>
    <rc><c>C </c><c>   2</c></rc>
    <rc><c>C </c><c>   2</c></rc>
    <rc><c>C </c><c>   2</c></rc>
    <rc><c>C </c><c>   2</c></rc>
    <rc><c>C </c><c>   2</c></rc>
    <rc><c>C </c><c>   2</c></rc>
    <rc><c>C </c><c>   2</c></rc>
    <rc><c>C </c><c>   2</c></rc>
    <rc><c>C </c><c>   2</c></rc>
    <rc><c>C </c><c>   2</c></rc>
    <rc><c>C </c><c>   2</c></rc>
    <rc><c>C </c><c>   2</c></rc>
    <rc><c>C </c><c>   2</c></rc>
    <rc><c>C </c><c>   2</c></rc>
    <rc><c>C </c><c>   2</c></rc>
    <rc><c>C </c><c>   2</c></rc>
   </set>
  </array>
  <array name="atomtypes" >
   <dimension dim="1">type</dimension>
   <field type="int">atomspertype</field>
   <field type="string">element</field>
   <field>mass</field>
   <field>valence</field>
   <field type="string">pseudopotential</field>
   <set>
    <rc><c>  96</c><c>B </c><c>     10.81100000</c><c>      3.00000000</c><c>  PAW_PBE B 06Sep2000                   </c></rc>
    <rc><c>  16</c><c>C </c><c>     12.01100000</c><c>      4.00000000</c><c>  PAW_PBE C 08Apr2002                   </c></rc>
   </set>
  </array>
 </atominfo>
 <structure name="initialpos" >
  <crystal>
   <varray name="basis" >
    <v>       9.36170800       0.07208300       4.27807000 </v>
    <v>       2.77721300       8.94057500       4.27807000 </v>
    <v>       0.09708700       0.07208300      10.29242500 </v>
   </varray>
   <i name="volume">    853.69179682 </i>
   <varray name="rec_basis" >
    <v>       0.10742966      -0.03299658      -0.00078228 </v>
    <v>      -0.00050783       0.11238170      -0.00078227 </v>
    <v>      -0.04444230      -0.03299660       0.09780914 </v>
   </varray>
  </crystal>
  <varray name="positions" >
   <v>       0.16039500       0.40051500       0.40051500 </v>
   <v>       0.16039500       0.40051500       0.90051500 </v>
   <v>       0.16039500       0.90051500       0.40051500 </v>
   <v>       0.16039500       0.90051500       0.90051500 </v>
   <v>       0.66039500       0.40051500       0.40051500 </v>
   <v>       0.66039500       0.40051500       0.90051500 </v>
   <v>       0.66039500       0.90051500       0.40051500 </v>
   <v>       0.66039500       0.90051500       0.90051500 </v>
   <v>       0.40051500       0.40051500       0.16039500 </v>
   <v>       0.40051500       0.40051500       0.66039500 </v>
   <v>       0.40051500       0.90051500       0.16039500 </v>
   <v>       0.40051500       0.90051500       0.66039500 </v>
   <v>       0.90051500       0.40051500       0.16039500 </v>
   <v>       0.90051500       0.40051500       0.66039500 </v>
   <v>       0.90051500       0.90051500       0.16039500 </v>
   <v>       0.90051500       0.90051500       0.66039500 </v>
   <v>       0.40051500       0.16039500       0.40051500 </v>
   <v>       0.40051500       0.16039500       0.90051500 </v>
   <v>       0.40051500       0.66039500       0.40051500 </v>
   <v>       0.40051500       0.66039500       0.90051500 </v>
   <v>       0.90051500       0.16039500       0.40051500 </v>
   <v>       0.90051500       0.16039500       0.90051500 </v>
   <v>       0.90051500       0.66039500       0.40051500 </v>
   <v>       0.90051500       0.66039500       0.90051500 </v>
   <v>       0.33960500       0.09948500       0.09948500 </v>
   <v>       0.33960500       0.09948500       0.59948500 </v>
   <v>       0.33960500       0.59948500       0.09948500 </v>
   <v>       0.33960500       0.59948500       0.59948500 </v>
   <v>       0.83960500       0.09948500       0.09948500 </v>
   <v>       0.83960500       0.09948500       0.59948500 </v>
   <v>       0.83960500       0.59948500       0.09948500 </v>
   <v>       0.83960500       0.59948500       0.59948500 </v>
   <v>       0.09948500       0.09948500       0.33960500 </v>
   <v>       0.09948500       0.09948500       0.83960500 </v>
   <v>       0.09948500       0.59948500       0.33960500 </v>
   <v>       0.09948500       0.59948500       0.83960500 </v>
   <v>       0.59948500       0.09948500       0.33960500 </v>
   <v>       0.59948500       0.09948500       0.83960500 </v>
   <v>       0.59948500       0.59948500       0.33960500 </v>
   <v>       0.59948500       0.59948500       0.83960500 </v>
   <v>       0.09948500       0.33960500       0.09948500 </v>
   <v>       0.09948500       0.33960500       0.59948500 </v>
   <v>       0.09948500       0.83960500       0.09948500 </v>
   <v>       0.09948500       0.83960500       0.59948500 </v>
   <v>       0.59948500       0.33960500       0.09948500 </v>
   <v>       0.59948500       0.33960500       0.59948500 </v>
   <v>       0.59948500       0.83960500       0.09948500 </v>
   <v>       0.59948500       0.83960500       0.59948500 </v>
   <v>       0.33229300       0.00011500       0.00011500 </v>
   <v>       0.33229300       0.00011500       0.50011500 </v>
   <v>       0.33229300       0.50011500       0.00011500 </v>
   <v>       0.33229300       0.50011500       0.50011500 </v>
   <v>       0.83229300       0.00011500       0.00011500 </v>
   <v>       0.83229300       0.00011500       0.50011500 </v>
   <v>       0.83229300       0.50011500       0.00011500 </v>
   <v>       0.83229300       0.50011500       0.50011500 </v>
   <v>       0.00011500       0.00011500       0.33229300 </v>
   <v>       0.00011500       0.00011500       0.83229300 </v>
   <v>       0.00011500       0.50011500       0.33229300 </v>
   <v>       0.00011500       0.50011500       0.83229300 </v>
   <v>       0.50011500       0.00011500       0.33229300 </v>
   <v>       0.50011500       0.00011500       0.83229300 </v>
   <v>       0.50011500       0.50011500       0.33229300 </v>
   <v>       0.50011500       0.50011500       0.83229300 </v>
   <v>       0.00011500       0.33229300       0.00011500 </v>
   <v>       0.00011500       0.33229300       0.50011500 </v>
   <v>       0.00011500       0.83229300       0.00011500 </v>
   <v>       0.00011500       0.83229300       0.50011500 </v>
   <v>       0.50011500       0.33229300       0.00011500 </v>
   <v>       0.50011500       0.33229300       0.50011500 </v>
   <v>       0.50011500       0.83229300       0.00011500 </v>
   <v>       0.50011500       0.83229300       0.50011500 </v>
   <v>       0.16770700       0.99988500       0.99988500 </v>
   <v>       0.16770700       0.99988500       0.49988500 </v>
   <v>       0.16770700       0.49988500       0.99988500 </v>
   <v>       0.16770700       0.49988500       0.49988500 </v>
   <v>       0.66770700       0.99988500       0.99988500 </v>
   <v>       0.66770700       0.99988500       0.49988500 </v>
   <v>       0.66770700       0.49988500       0.99988500 </v>
   <v>       0.66770700       0.49988500       0.49988500 </v>
   <v>       0.99988500       0.99988500       0.16770700 </v>
   <v>       0.99988500       0.99988500       0.66770700 </v>
   <v>       0.99988500       0.49988500       0.16770700 </v>
   <v>       0.99988500       0.49988500       0.66770700 </v>
   <v>       0.49988500       0.99988500       0.16770700 </v>
   <v>       0.49988500       0.99988500       0.66770700 </v>
   <v>       0.49988500       0.49988500       0.16770700 </v>
   <v>       0.49988500       0.49988500       0.66770700 </v>
   <v>       0.99988500       0.16770700       0.99988500 </v>
   <v>       0.99988500       0.16770700       0.49988500 </v>
   <v>       0.99988500       0.66770700       0.99988500 </v>
   <v>       0.99988500       0.66770700       0.49988500 </v>
   <v>       0.49988500       0.16770700       0.99988500 </v>
   <v>       0.49988500       0.16770700       0.49988500 </v>
   <v>       0.49988500       0.66770700       0.99988500 </v>
   <v>       0.49988500       0.66770700       0.49988500 </v>
   <v>       0.31539700       0.31539700       0.31539700 </v>
   <v>       0.31539700       0.31539700       0.81539700 </v>
   <v>       0.31539700       0.81539700       0.31539700 </v>
   <v>       0.31539700       0.81539700       0.81539700 </v>
   <v>       0.81539700       0.31539700       0.31539700 </v>
   <v>       0.81539700       0.31539700       0.81539700 </v>
   <v>       0.81539700       0.81539700       0.31539700 </v>
   <v>       0.81539700       0.81539700       0.81539700 </v>
   <v>       0.18460300       0.18460300       0.18460300 </v>
   <v>       0.18460300       0.18460300       0.68460300 </v>
   <v>       0.18460300       0.68460300       0.18460300 </v>
   <v>       0.18460300       0.68460300       0.68460300 </v>
   <v>       0.68460300       0.18460300       0.18460300 </v>
   <v>       0.68460300       0.18460300       0.68460300 </v>
   <v>       0.68460300       0.68460300       0.18460300 </v>
   <v>       0.68460300       0.68460300       0.68460300 </v>
  </varray>
 </structure>
 <calculation>
  <scstep>
   <time name="dav">    3.13    3.13</time>
   <time name="total">    3.39    3.40</time>
   <energy>
    <i name="alphaZ">   1043.19914055 </i>
    <i name="ewald"> -10066.79090068 </i>
    <i name="hartreedc">  -1039.34137683 </i>
    <i name="XCdc">    902.46394524 </i>
    <i name="pawpsdc">   5912.33983061 </i>
    <i name="pawaedc">  -5839.33960861 </i>
    <i name="eentropy">      0.00000000 </i>
    <i name="bandstr">   1283.03790781 </i>
    <i name="atom">   9186.75495500 </i>
    <i name="e_fr_energy">   1382.32389311 </i>
    <i name="e_wo_entrp">   1382.32389311 </i>
    <i name="e_0_energy">   1382.32389311 </i>
   </energy>
  </scstep>
  <scstep>
   <time name="dav">    3.61    3.61</time>
   <time name="total">    3.61    3.61</time>
   <energy>
    <i name="e_fr_energy">   -713.88256079 </i>
    <i name="e_wo_entrp">   -713.88256079 </i>
    <i name="e_0_energy">   -713.88256079 </i>
   </energy>
  </scstep>
  <scstep>
   <time name="dav">    3.48    3.48</time>
   <time name="total">    3.48    3.48</time>
   <energy>
    <i name="e_fr_energy">   -839.46897936 </i>
    <i name="e_wo_entrp">   -839.46897936 </i>
    <i name="e_0_energy">   -839.46897936 </i>
   </energy>
  </scstep>
  <scstep>
   <time name="dav">    3.45    3.45</time>
   <time name="total">    3.46    3.45</time>
   <energy>
    <i name="e_fr_energy">   -842.34014853 </i>
    <i name="e_wo_entrp">   -842.34014853 </i>
    <i name="e_0_energy">   -842.34014853 </i>
   </energy>
  </scstep>
  <scstep>
   <time name="dav">    3.40    3.40</time>
   <time name="total">    4.93    4.93</time>
   <energy>
    <i name="e_fr_energy">   -842.41571550 </i>
    <i name="e_wo_entrp">   -842.41571550 </i>
    <i name="e_0_energy">   -842.41571550 </i>
   </energy>
  </scstep>
  <scstep>
   <time name="diag">    0.66    0.66</time>
   <time name="diis">    2.83    2.81</time>
   <time name="orth">    0.02    0.02</time>
   <time name="total">    5.26    5.24</time>
   <energy>
    <i name="e_fr_energy">   -804.59336253 </i>
    <i name="e_wo_entrp">   -804.59336253 </i>
    <i name="e_0_energy">   -804.59336253 </i>
   </energy>
  </scstep>
  <scstep>
   <time name="diag">    0.66    0.66</time>
   <time name="diis">    2.81    2.79</time>
   <time name="orth">    0.02    0.02</time>
   <time name="total">    5.22    5.20</time>
   <energy>
    <i name="e_fr_energy">   -793.53053043 </i>
    <i name="e_wo_entrp">   -793.53053043 </i>
    <i name="e_0_energy">   -793.53053043 </i>
   </energy>
  </scstep>
  <scstep>
   <time name="diag">    0.66    0.66</time>
   <time name="diis">    2.81    2.79</time>
   <time name="orth">    0.02    0.02</time>
   <time name="total">    5.23    5.21</time>
   <energy>
    <i name="e_fr_energy">   -793.69968566 </i>
    <i name="e_wo_entrp">   -793.69968566 </i>
    <i name="e_0_energy">   -793.69968566 </i>
   </energy>
  </scstep>
  <scstep>
   <time name="diag">    0.66    0.66</time>
   <time name="diis">    2.78    2.76</time>
   <time name="orth">    0.02    0.02</time>
   <time name="total">    5.17    5.15</time>
   <energy>
    <i name="e_fr_energy">   -793.77266024 </i>
    <i name="e_wo_entrp">   -793.77266024 </i>
    <i name="e_0_energy">   -793.77266024 </i>
   </energy>
  </scstep>
  <scstep>
   <time name="diag">    0.66    0.66</time>
   <time name="diis">    2.77    2.75</time>
   <time name="orth">    0.02    0.02</time>
   <time name="total">    5.18    5.16</time>
   <energy>
    <i name="e_fr_energy">   -793.74281737 </i>
    <i name="e_wo_entrp">   -793.74281737 </i>
    <i name="e_0_energy">   -793.74281737 </i>
   </energy>
  </scstep>
  <scstep>
   <time name="diag">    0.66    0.66</time>
   <time name="diis">    2.86    2.84</time>
   <time name="orth">    0.02    0.02</time>
   <time name="total">    5.29    5.27</time>
   <energy>
    <i name="e_fr_energy">   -793.74911582 </i>
    <i name="e_wo_entrp">   -793.74911582 </i>
    <i name="e_0_energy">   -793.74911582 </i>
   </energy>
  </scstep>
  <scstep>
   <time name="diag">    0.67    0.67</time>
   <time name="diis">    2.86    2.83</time>
   <time name="orth">    0.02    0.02</time>
   <time name="total">    5.28    5.26</time>
   <energy>
    <i name="e_fr_energy">   -793.74902737 </i>
    <i name="e_wo_entrp">   -793.74902737 </i>
    <i name="e_0_energy">   -793.74902737 </i>
   </energy>
  </scstep>
  <scstep>
   <time name="diag">    0.65    0.65</time>
   <time name="diis">    2.81    2.79</time>
   <time name="orth">    0.02    0.02</time>
   <time name="total">    5.23    5.20</time>
   <energy>
    <i name="e_fr_energy">   -793.74868522 </i>
    <i name="e_wo_entrp">   -793.74868522 </i>
    <i name="e_0_energy">   -793.74868522 </i>
   </energy>
  </scstep>
  <scstep>
   <time name="diag">    0.66    0.66</time>
   <time name="diis">    2.85    2.82</time>
   <time name="orth">    0.02    0.02</time>
   <time name="total">    5.29    5.27</time>
   <energy>
    <i name="e_fr_energy">   -793.74922652 </i>
    <i name="e_wo_entrp">   -793.74922652 </i>
    <i name="e_0_energy">   -793.74922652 </i>
   </energy>
  </scstep>
  <scstep>
   <time name="diag">    0.65    0.65</time>
   <time name="diis">    2.83    2.81</time>
   <time name="orth">    0.02    0.02</time>
   <time name="total">    5.24    5.22</time>
   <energy>
    <i name="e_fr_energy">   -793.74921294 </i>
    <i name="e_wo_entrp">   -793.74921294 </i>
    <i name="e_0_energy">   -793.74921294 </i>
   </energy>
  </scstep>
  <scstep>
   <time name="diag">    0.66    0.66</time>
   <time name="diis">    2.81    2.79</time>
   <time name="orth">    0.02    0.02</time>
   <time name="total">    5.21    5.19</time>
   <energy>
    <i name="e_fr_energy">   -793.74926309 </i>
    <i name="e_wo_entrp">   -793.74926309 </i>
    <i name="e_0_energy">   -793.74926309 </i>
   </energy>
  </scstep>
  <scstep>
   <time name="diag">    0.66    0.66</time>
   <time name="diis">    2.04    2.03</time>
   <time name="orth">    0.02    0.02</time>
   <time name="total">    4.47    4.46</time>
   <energy>
    <i name="e_fr_energy">   -793.74925464 </i>
    <i name="e_wo_entrp">   -793.74925464 </i>
    <i name="e_0_energy">   -793.74925464 </i>
   </energy>
  </scstep>
  <scstep>
   <time name="diag">    0.65    0.65</time>
   <time name="diis">    1.82    1.82</time>
   <time name="orth">    0.02    0.02</time>
   <time name="total">    4.27    4.27</time>
   <energy>
    <i name="e_fr_energy">   -793.74922561 </i>
    <i name="e_wo_entrp">   -793.74922561 </i>
    <i name="e_0_energy">   -793.74922561 </i>
   </energy>
  </scstep>
  <scstep>
   <time name="diag">    0.65    0.65</time>
   <time name="diis">    1.75    1.75</time>
   <time name="orth">    0.02    0.02</time>
   <time name="total">    2.67    2.66</time>
   <energy>
    <i name="alphaZ">   1043.19914055 </i>
    <i name="ewald"> -10066.79090068 </i>
    <i name="hartreedc">  -1471.54961751 </i>
    <i name="XCdc">    933.67900616 </i>
    <i name="pawpsdc">  33876.33696705 </i>
    <i name="pawaedc"> -33813.56879339 </i>
    <i name="eentropy">      0.00000000 </i>
    <i name="bandstr">   -481.80998268 </i>
    <i name="atom">   9186.75495500 </i>
    <i name="e_fr_energy">   -793.74922550 </i>
    <i name="e_wo_entrp">   -793.74922550 </i>
    <i name="e_0_energy">   -793.74922550 </i>
   </energy>
  </scstep>
  <structure>
   <crystal>
    <varray name="basis" >
     <v>       9.36170800       0.07208300       4.27807000 </v>
     <v>       2.77721300       8.94057500       4.27807000 </v>
     <v>       0.09708700       0.07208300      10.29242500 </v>
    </varray>
    <i name="volume">    853.69179682 </i>
    <varray name="rec_basis" >
     <v>       0.10742966      -0.03299658      -0.00078228 </v>
     <v>      -0.00050783       0.11238170      -0.00078227 </v>
     <v>      -0.04444230      -0.03299660       0.09780914 </v>
    </varray>
   </crystal>
   <varray name="positions" >
    <v>       0.16039500       0.40051500       0.40051500 </v>
    <v>       0.16039500       0.40051500       0.90051500 </v>
    <v>       0.16039500       0.90051500       0.40051500 </v>
    <v>       0.16039500       0.90051500       0.90051500 </v>
    <v>       0.66039500       0.40051500       0.40051500 </v>
    <v>       0.66039500       0.40051500       0.90051500 </v>
    <v>       0.66039500       0.90051500       0.40051500 </v>
    <v>       0.66039500       0.90051500       0.90051500 </v>
    <v>       0.40051500       0.40051500       0.16039500 </v>
    <v>       0.40051500       0.40051500       0.66039500 </v>
    <v>       0.40051500       0.90051500       0.16039500 </v>
    <v>       0.40051500       0.90051500       0.66039500 </v>
    <v>       0.90051500       0.40051500       0.16039500 </v>
    <v>       0.90051500       0.40051500       0.66039500 </v>
    <v>       0.90051500       0.90051500       0.16039500 </v>
    <v>       0.90051500       0.90051500       0.66039500 </v>
    <v>       0.40051500       0.16039500       0.40051500 </v>
    <v>       0.40051500       0.16039500       0.90051500 </v>
    <v>       0.40051500       0.66039500       0.40051500 </v>
    <v>       0.40051500       0.66039500       0.90051500 </v>
    <v>       0.90051500       0.16039500       0.40051500 </v>
    <v>       0.90051500       0.16039500       0.90051500 </v>
    <v>       0.90051500       0.66039500       0.40051500 </v>
    <v>       0.90051500       0.66039500       0.90051500 </v>
    <v>       0.33960500       0.09948500       0.09948500 </v>
    <v>       0.33960500       0.09948500       0.59948500 </v>
    <v>       0.33960500       0.59948500       0.09948500 </v>
    <v>       0.33960500       0.59948500       0.59948500 </v>
    <v>       0.83960500       0.09948500       0.09948500 </v>
    <v>       0.83960500       0.09948500       0.59948500 </v>
    <v>       0.83960500       0.59948500       0.09948500 </v>
    <v>       0.83960500       0.59948500       0.59948500 </v>
    <v>       0.09948500       0.09948500       0.33960500 </v>
    <v>       0.09948500       0.09948500       0.83960500 </v>
    <v>       0.09948500       0.59948500       0.33960500 </v>
    <v>       0.09948500       0.59948500       0.83960500 </v>
    <v>       0.59948500       0.09948500       0.33960500 </v>
    <v>       0.59948500       0.09948500       0.83960500 </v>
    <v>       0.59948500       0.59948500       0.33960500 </v>
    <v>       0.59948500       0.59948500       0.83960500 </v>
    <v>       0.09948500       0.33960500       0.09948500 </v>
    <v>       0.09948500       0.33960500       0.59948500 </v>
    <v>       0.09948500       0.83960500       0.09948500 </v>
    <v>       0.09948500       0.83960500       0.59948500 </v>
    <v>       0.59948500       0.33960500       0.09948500 </v>
    <v>       0.59948500       0.33960500       0.59948500 </v>
    <v>       0.59948500       0.83960500       0.09948500 </v>
    <v>       0.59948500       0.83960500       0.59948500 </v>
    <v>       0.33229300       0.00011500       0.00011500 </v>
    <v>       0.33229300       0.00011500       0.50011500 </v>
    <v>       0.33229300       0.50011500       0.00011500 </v>
    <v>       0.33229300       0.50011500       0.50011500 </v>
    <v>       0.83229300       0.00011500       0.00011500 </v>
    <v>       0.83229300       0.00011500       0.50011500 </v>
    <v>       0.83229300       0.50011500       0.00011500 </v>
    <v>       0.83229300       0.50011500       0.50011500 </v>
    <v>       0.00011500       0.00011500       0.33229300 </v>
    <v>       0.00011500       0.00011500       0.83229300 </v>
    <v>       0.00011500       0.50011500       0.33229300 </v>
    <v>       0.00011500       0.50011500       0.83229300 </v>
    <v>       0.50011500       0.00011500       0.33229300 </v>
    <v>       0.50011500       0.00011500       0.83229300 </v>
    <v>       0.50011500       0.50011500       0.33229300 </v>
    <v>       0.50011500       0.50011500       0.83229300 </v>
    <v>       0.00011500       0.33229300       0.00011500 </v>
    <v>       0.00011500       0.33229300       0.50011500 </v>
    <v>       0.00011500       0.83229300       0.00011500 </v>
    <v>       0.00011500       0.83229300       0.50011500 </v>
    <v>       0.50011500       0.33229300       0.00011500 </v>
    <v>       0.50011500       0.33229300       0.50011500 </v>
    <v>       0.50011500       0.83229300       0.00011500 </v>
    <v>       0.50011500       0.83229300       0.50011500 </v>
    <v>       0.16770700       0.99988500       0.99988500 </v>
    <v>       0.16770700       0.99988500       0.49988500 </v>
    <v>       0.16770700       0.49988500       0.99988500 </v>
    <v>       0.16770700       0.49988500       0.49988500 </v>
    <v>       0.66770700       0.99988500       0.99988500 </v>
    <v>       0.66770700       0.99988500       0.49988500 </v>
    <v>       0.66770700       0.49988500       0.99988500 </v>
    <v>       0.66770700       0.49988500       0.49988500 </v>
    <v>       0.99988500       0.99988500       0.16770700 </v>
    <v>       0.99988500       0.99988500       0.66770700 </v>
    <v>       0.99988500       0.49988500       0.16770700 </v>
    <v>       0.99988500       0.49988500       0.66770700 </v>
    <v>       0.49988500       0.99988500       0.16770700 </v>
    <v>       0.49988500       0.99988500       0.66770700 </v>
    <v>       0.49988500       0.49988500       0.16770700 </v>
    <v>       0.49988500       0.49988500       0.66770700 </v>
    <v>       0.99988500       0.16770700       0.99988500 </v>
    <v>       0.99988500       0.16770700       0.49988500 </v>
    <v>       0.99988500       0.66770700       0.99988500 </v>
    <v>       0.99988500       0.66770700       0.49988500 </v>
    <v>       0.49988500       0.16770700       0.99988500 </v>
    <v>       0.49988500       0.16770700       0.49988500 </v>
    <v>       0.49988500       0.66770700       0.99988500 </v>
    <v>       0.49988500       0.66770700       0.49988500 </v>
    <v>       0.31539700       0.31539700       0.31539700 </v>
    <v>       0.31539700       0.31539700       0.81539700 </v>
    <v>       0.31539700       0.81539700       0.31539700 </v>
    <v>       0.31539700       0.81539700       0.81539700 </v>
    <v>       0.81539700       0.31539700       0.31539700 </v>
    <v>       0.81539700       0.31539700       0.81539700 </v>
    <v>       0.81539700       0.81539700       0.31539700 </v>
    <v>       0.81539700       0.81539700       0.81539700 </v>
    <v>       0.18460300       0.18460300       0.18460300 </v>
    <v>       0.18460300       0.18460300       0.68460300 </v>
    <v>       0.18460300       0.68460300       0.18460300 </v>
    <v>       0.18460300       0.68460300       0.68460300 </v>
    <v>       0.68460300       0.18460300       0.18460300 </v>
    <v>       0.68460300       0.18460300       0.68460300 </v>
    <v>       0.68460300       0.68460300       0.18460300 </v>
    <v>       0.68460300       0.68460300       0.68460300 </v>
   </varray>
  </structure>
  <varray name="forces" >
   <v>      -0.05356816      -0.02988823      -0.06794292 </v>
   <v>      -0.05356816      -0.02988823      -0.06794292 </v>
   <v>      -0.05356816      -0.02988823      -0.06794292 </v>
   <v>      -0.05356816      -0.02988823      -0.06794292 </v>
   <v>      -0.05356816      -0.02988823      -0.06794292 </v>
   <v>      -0.05356816      -0.02988823      -0.06794292 </v>
   <v>      -0.05356816      -0.02988823      -0.06794292 </v>
   <v>      -0.05356816      -0.02988823      -0.06794292 </v>
   <v>      -0.04025571      -0.02988823      -0.07658503 </v>
   <v>      -0.04025571      -0.02988823      -0.07658503 </v>
   <v>      -0.04025571      -0.02988823      -0.07658503 </v>
   <v>      -0.04025571      -0.02988823      -0.07658503 </v>
   <v>      -0.04025571      -0.02988823      -0.07658503 </v>
   <v>      -0.04025571      -0.02988823      -0.07658503 </v>
   <v>      -0.04025571      -0.02988823      -0.07658503 </v>
   <v>      -0.04025571      -0.02988823      -0.07658503 </v>
   <v>      -0.04410681      -0.04263148      -0.06794292 </v>
   <v>      -0.04410681      -0.04263148      -0.06794292 </v>
   <v>      -0.04410681      -0.04263148      -0.06794292 </v>
   <v>      -0.04410681      -0.04263148      -0.06794292 </v>
   <v>      -0.04410681      -0.04263148      -0.06794292 </v>
   <v>      -0.04410681      -0.04263148      -0.06794292 </v>
   <v>      -0.04410681      -0.04263148      -0.06794292 </v>
   <v>      -0.04410681      -0.04263148      -0.06794292 </v>
   <v>       0.05356816       0.02988823       0.06794292 </v>
   <v>       0.05356816       0.02988823       0.06794292 </v>
   <v>       0.05356816       0.02988823       0.06794292 </v>
   <v>       0.05356816       0.02988823       0.06794292 </v>
   <v>       0.05356816       0.02988823       0.06794292 </v>
   <v>       0.05356816       0.02988823       0.06794292 </v>
   <v>       0.05356816       0.02988823       0.06794292 </v>
   <v>       0.05356816       0.02988823       0.06794292 </v>
   <v>       0.04025571       0.02988823       0.07658503 </v>
   <v>       0.04025571       0.02988823       0.07658503 </v>
   <v>       0.04025571       0.02988823       0.07658503 </v>
   <v>       0.04025571       0.02988823       0.07658503 </v>
   <v>       0.04025571       0.02988823       0.07658503 </v>
   <v>       0.04025571       0.02988823       0.07658503 </v>
   <v>       0.04025571       0.02988823       0.07658503 </v>
   <v>       0.04025571       0.02988823       0.07658503 </v>
   <v>       0.04410681       0.04263148       0.06794292 </v>
   <v>       0.04410681       0.04263148       0.06794292 </v>
   <v>       0.04410681       0.04263148       0.06794292 </v>
   <v>       0.04410681       0.04263148       0.06794292 </v>
   <v>       0.04410681       0.04263148       0.06794292 </v>
   <v>       0.04410681       0.04263148       0.06794292 </v>
   <v>       0.04410681       0.04263148       0.06794292 </v>
   <v>       0.04410681       0.04263148       0.06794292 </v>
   <v>      -0.02705533       0.00329755      -0.00719403 </v>
   <v>      -0.02705533       0.00329755      -0.00719403 </v>
   <v>      -0.02705533       0.00329755      -0.00719403 </v>
   <v>      -0.02705533       0.00329755      -0.00719403 </v>
   <v>      -0.02705533       0.00329755      -0.00719403 </v>
   <v>      -0.02705533       0.00329755      -0.00719403 </v>
   <v>      -0.02705533       0.00329755      -0.00719403 </v>
   <v>      -0.02705533       0.00329755      -0.00719403 </v>
   <v>       0.00444138       0.00329755      -0.02764089 </v>
   <v>       0.00444138       0.00329755      -0.02764089 </v>
   <v>       0.00444138       0.00329755      -0.02764089 </v>
   <v>       0.00444138       0.00329755      -0.02764089 </v>
   <v>       0.00444138       0.00329755      -0.02764089 </v>
   <v>       0.00444138       0.00329755      -0.02764089 </v>
   <v>       0.00444138       0.00329755      -0.02764089 </v>
   <v>       0.00444138       0.00329755      -0.02764089 </v>
   <v>      -0.00467018      -0.02685246      -0.00719403 </v>
   <v>      -0.00467018      -0.02685246      -0.00719403 </v>
   <v>      -0.00467018      -0.02685246      -0.00719403 </v>
   <v>      -0.00467018      -0.02685246      -0.00719403 </v>
   <v>      -0.00467018      -0.02685246      -0.00719403 </v>
   <v>      -0.00467018      -0.02685246      -0.00719403 </v>
   <v>      -0.00467018      -0.02685246      -0.00719403 </v>
   <v>      -0.00467018      -0.02685246      -0.00719403 </v>
   <v>       0.02705533      -0.00329755       0.00719403 </v>
   <v>       0.02705533      -0.00329755       0.00719403 </v>
   <v>       0.02705533      -0.00329755       0.00719403 </v>
   <v>       0.02705533      -0.00329755       0.00719403 </v>
   <v>       0.02705533      -0.00329755       0.00719403 </v>
   <v>       0.02705533      -0.00329755       0.00719403 </v>
   <v>       0.02705533      -0.00329755       0.00719403 </v>
   <v>       0.02705533      -0.00329755       0.00719403 </v>
   <v>      -0.00444138      -0.00329755       0.02764089 </v>
   <v>      -0.00444138      -0.00329755       0.02764089 </v>
   <v>      -0.00444138      -0.00329755       0.02764089 </v>
   <v>      -0.00444138      -0.00329755       0.02764089 </v>
   <v>      -0.00444138      -0.00329755       0.02764089 </v>
   <v>      -0.00444138      -0.00329755       0.02764089 </v>
   <v>      -0.00444138      -0.00329755       0.02764089 </v>
   <v>      -0.00444138      -0.00329755       0.02764089 </v>
   <v>       0.00467018       0.02685246       0.00719403 </v>
   <v>       0.00467018       0.02685246       0.00719403 </v>
   <v>       0.00467018       0.02685246       0.00719403 </v>
   <v>       0.00467018       0.02685246       0.00719403 </v>
   <v>       0.00467018       0.02685246       0.00719403 </v>
   <v>       0.00467018       0.02685246       0.00719403 </v>
   <v>       0.00467018       0.02685246       0.00719403 </v>
   <v>       0.00467018       0.02685246       0.00719403 </v>
   <v>      -0.03350572      -0.02487664      -0.05161280 </v>
   <v>      -0.03350572      -0.02487664      -0.05161280 </v>
   <v>      -0.03350572      -0.02487664      -0.05161280 </v>
   <v>      -0.03350572      -0.02487664      -0.05161280 </v>
   <v>      -0.03350572      -0.02487664      -0.05161280 </v>
   <v>      -0.03350572      -0.02487664      -0.05161280 </v>
   <v>      -0.03350572      -0.02487664      -0.05161280 </v>
   <v>      -0.03350572      -0.02487664      -0.05161280 </v>
   <v>       0.03350572       0.02487664       0.05161280 </v>
   <v>       0.03350572       0.02487664       0.05161280 </v>
   <v>       0.03350572       0.02487664       0.05161280 </v>
   <v>       0.03350572       0.02487664       0.05161280 </v>
   <v>       0.03350572       0.02487664       0.05161280 </v>
   <v>       0.03350572       0.02487664       0.05161280 </v>
   <v>       0.03350572       0.02487664       0.05161280 </v>
   <v>       0.03350572       0.02487664       0.05161280 </v>
  </varray>
  <varray name="stress" >
   <v>      49.78931124       1.01235639       2.10040209 </v>
   <v>       1.01235639      49.17744101       1.55946278 </v>
   <v>       2.10040209       1.55946278      51.66126868 </v>
  </varray>
  <energy>
   <i name="e_fr_energy">   -793.74922550 </i>
   <i name="e_wo_entrp">   -793.74922550 </i>
   <i name="e_0_energy">   -793.74922550 </i>
  </energy>
  <time name="totalsc">  104.22  106.04</time>
 </calculation>
 <calculation>
  <scstep>
   <time name="dav">    3.30    3.30</time>
   <time name="total">    5.02    5.02</time>
   <energy>
    <i name="alphaZ">   1043.19914055 </i>
    <i name="ewald"> -10072.96538161 </i>
    <i name="hartreedc">  -1466.51081949 </i>
    <i name="XCdc">    933.52693729 </i>
    <i name="pawpsdc">  33876.32310966 </i>
    <i name="pawaedc"> -33813.55490403 </i>
    <i name="eentropy">      0.00000000 </i>
    <i name="bandstr">   -480.53386354 </i>
    <i name="atom">   9186.75495500 </i>
    <i name="e_fr_energy">   -793.76082615 </i>
    <i name="e_wo_entrp">   -793.76082615 </i>
    <i name="e_0_energy">   -793.76082615 </i>
   </energy>
  </scstep>
  <scstep>
   <time name="diag">    0.65    0.65</time>
   <time name="diis">    2.81    2.79</time>
   <time name="orth">    0.02    0.02</time>
   <time name="total">    5.20    5.18</time>
   <energy>
    <i name="e_fr_energy">   -793.75670347 </i>
    <i name="e_wo_entrp">   -793.75670347 </i>
    <i name="e_0_energy">   -793.75670347 </i>
   </energy>
  </scstep>
  <scstep>
   <time name="diag">    0.65    0.65</time>
   <time name="diis">    2.80    2.78</time>
   <time name="orth">    0.02    0.02</time>
   <time name="total">    5.24    5.22</time>
   <energy>
    <i name="e_fr_energy">   -793.75649600 </i>
    <i name="e_wo_entrp">   -793.75649600 </i>
    <i name="e_0_energy">   -793.75649600 </i>
   </energy>
  </scstep>
  <scstep>
   <time name="diag">    0.66    0.66</time>
   <time name="diis">    2.83    2.81</time>
   <time name="orth">    0.02    0.02</time>
   <time name="total">    5.27    5.25</time>
   <energy>
    <i name="e_fr_energy">   -793.75665575 </i>
    <i name="e_wo_entrp">   -793.75665575 </i>
    <i name="e_0_energy">   -793.75665575 </i>
   </energy>
  </scstep>
  <scstep>
   <time name="diag">    0.65    0.65</time>
   <time name="diis">    2.82    2.80</time>
   <time name="orth">    0.02    0.02</time>
   <time name="total">    5.28    5.25</time>
   <energy>
    <i name="e_fr_energy">   -793.75675192 </i>
    <i name="e_wo_entrp">   -793.75675192 </i>
    <i name="e_0_energy">   -793.75675192 </i>
   </energy>
  </scstep>
  <scstep>
   <time name="diag">    0.65    0.65</time>
   <time name="diis">    2.85    2.83</time>
   <time name="orth">    0.02    0.02</time>
   <time name="total">    5.26    5.23</time>
   <energy>
    <i name="e_fr_energy">   -793.75674710 </i>
    <i name="e_wo_entrp">   -793.75674710 </i>
    <i name="e_0_energy">   -793.75674710 </i>
   </energy>
  </scstep>
  <scstep>
   <time name="diag">    0.65    0.65</time>
   <time name="diis">    2.30    2.29</time>
   <time name="orth">    0.02    0.02</time>
   <time name="total">    4.72    4.71</time>
   <energy>
    <i name="e_fr_energy">   -793.75678821 </i>
    <i name="e_wo_entrp">   -793.75678821 </i>
    <i name="e_0_energy">   -793.75678821 </i>
   </energy>
  </scstep>
  <scstep>
   <time name="diag">    0.66    0.66</time>
   <time name="diis">    1.81    1.80</time>
   <time name="orth">    0.02    0.02</time>
   <time name="total">    4.22    4.22</time>
   <energy>
    <i name="e_fr_energy">   -793.75677087 </i>
    <i name="e_wo_entrp">   -793.75677087 </i>
    <i name="e_0_energy">   -793.75677087 </i>
   </energy>
  </scstep>
  <scstep>
   <time name="diag">    0.66    0.66</time>
   <time name="diis">    1.77    1.76</time>
   <time name="orth">    0.02    0.02</time>
   <time name="total">    4.18    4.17</time>
   <energy>
    <i name="e_fr_energy">   -793.75676973 </i>
    <i name="e_wo_entrp">   -793.75676973 </i>
    <i name="e_0_energy">   -793.75676973 </i>
   </energy>
  </scstep>
  <scstep>
   <time name="diag">    0.65    0.65</time>
   <time name="diis">    1.51    1.51</time>
   <time name="orth">    0.02    0.02</time>
   <time name="total">    3.92    3.92</time>
   <energy>
    <i name="e_fr_energy">   -793.75677283 </i>
    <i name="e_wo_entrp">   -793.75677283 </i>
    <i name="e_0_energy">   -793.75677283 </i>
   </energy>
  </scstep>
  <scstep>
   <time name="diag">    0.65    0.65</time>
   <time name="diis">    1.40    1.40</time>
   <time name="orth">    0.02    0.02</time>
   <time name="total">    2.32    2.31</time>
   <energy>
    <i name="alphaZ">   1043.19914055 </i>
    <i name="ewald"> -10072.96538161 </i>
    <i name="hartreedc">  -1466.54002107 </i>
    <i name="XCdc">    933.56376981 </i>
    <i name="pawpsdc">  33837.91227197 </i>
    <i name="pawaedc"> -33775.13283322 </i>
    <i name="eentropy">      0.00000000 </i>
    <i name="bandstr">   -480.54867480 </i>
    <i name="atom">   9186.75495500 </i>
    <i name="e_fr_energy">   -793.75677336 </i>
    <i name="e_wo_entrp">   -793.75677336 </i>
    <i name="e_0_energy">   -793.75677336 </i>
   </energy>
  </scstep>
  <structure>
   <crystal>
    <varray name="basis" >
     <v>       9.36288615       0.07577229       4.28403507 </v>
     <v>       2.78108537       8.94063554       4.28403507 </v>
     <v>       0.10205603       0.07577230      10.29592911 </v>
    </varray>
    <i name="volume">    853.69179682 </i>
    <varray name="rec_basis" >
     <v>       0.10744807      -0.03302907      -0.00082198 </v>
     <v>      -0.00053361       0.11240872      -0.00082198 </v>
     <v>      -0.04448606      -0.03302909       0.09780980 </v>
    </varray>
   </crystal>
   <varray name="positions" >
    <v>       0.16016751       0.40035683       0.40035683 </v>
    <v>       0.16016751       0.40035683       0.90035683 </v>
    <v>       0.16016751       0.90035683       0.40035683 </v>
    <v>       0.16016751       0.90035683       0.90035683 </v>
    <v>       0.66016751       0.40035683       0.40035683 </v>
    <v>       0.66016751       0.40035683       0.90035683 </v>
    <v>       0.66016751       0.90035683       0.40035683 </v>
    <v>       0.66016751       0.90035683       0.90035683 </v>
    <v>       0.40035683       0.40035683       0.16016751 </v>
    <v>       0.40035683       0.40035683       0.66016751 </v>
    <v>       0.40035683       0.90035683       0.16016751 </v>
    <v>       0.40035683       0.90035683       0.66016751 </v>
    <v>       0.90035683       0.40035683       0.16016751 </v>
    <v>       0.90035683       0.40035683       0.66016751 </v>
    <v>       0.90035683       0.90035683       0.16016751 </v>
    <v>       0.90035683       0.90035683       0.66016751 </v>
    <v>       0.40035683       0.16016751       0.40035683 </v>
    <v>       0.40035683       0.16016751       0.90035683 </v>
    <v>       0.40035683       0.66016751       0.40035683 </v>
    <v>       0.40035683       0.66016751       0.90035683 </v>
    <v>       0.90035683       0.16016751       0.40035683 </v>
    <v>       0.90035683       0.16016751       0.90035683 </v>
    <v>       0.90035683       0.66016751       0.40035683 </v>
    <v>       0.90035683       0.66016751       0.90035683 </v>
    <v>       0.33983249       0.09964317       0.09964317 </v>
    <v>       0.33983249       0.09964317       0.59964317 </v>
    <v>       0.33983249       0.59964317       0.09964317 </v>
    <v>       0.33983249       0.59964317       0.59964317 </v>
    <v>       0.83983249       0.09964317       0.09964317 </v>
    <v>       0.83983249       0.09964317       0.59964317 </v>
    <v>       0.83983249       0.59964317       0.09964317 </v>
    <v>       0.83983249       0.59964317       0.59964317 </v>
    <v>       0.09964317       0.09964317       0.33983249 </v>
    <v>       0.09964317       0.09964317       0.83983249 </v>
    <v>       0.09964317       0.59964317       0.33983249 </v>
    <v>       0.09964317       0.59964317       0.83983249 </v>
    <v>       0.59964317       0.09964317       0.33983249 </v>
    <v>       0.59964317       0.09964317       0.83983249 </v>
    <v>       0.59964317       0.59964317       0.33983249 </v>
    <v>       0.59964317       0.59964317       0.83983249 </v>
    <v>       0.09964317       0.33983249       0.09964317 </v>
    <v>       0.09964317       0.33983249       0.59964317 </v>
    <v>       0.09964317       0.83983249       0.09964317 </v>
    <v>       0.09964317       0.83983249       0.59964317 </v>
    <v>       0.59964317       0.33983249       0.09964317 </v>
    <v>       0.59964317       0.33983249       0.59964317 </v>
    <v>       0.59964317       0.83983249       0.09964317 </v>
    <v>       0.59964317       0.83983249       0.59964317 </v>
    <v>       0.33214780       0.00013381       0.00013381 </v>
    <v>       0.33214780       0.00013381       0.50013381 </v>
    <v>       0.33214780       0.50013381       0.00013381 </v>
    <v>       0.33214780       0.50013381       0.50013381 </v>
    <v>       0.83214780       0.00013381       0.00013381 </v>
    <v>       0.83214780       0.00013381       0.50013381 </v>
    <v>       0.83214780       0.50013381       0.00013381 </v>
    <v>       0.83214780       0.50013381       0.50013381 </v>
    <v>       0.00013381       0.00013381       0.33214780 </v>
    <v>       0.00013381       0.00013381       0.83214780 </v>
    <v>       0.00013381       0.50013381       0.33214780 </v>
    <v>       0.00013381       0.50013381       0.83214780 </v>
    <v>       0.50013381       0.00013381       0.33214780 </v>
    <v>       0.50013381       0.00013381       0.83214780 </v>
    <v>       0.50013381       0.50013381       0.33214780 </v>
    <v>       0.50013381       0.50013381       0.83214780 </v>
    <v>       0.00013381       0.33214780       0.00013381 </v>
    <v>       0.00013381       0.33214780       0.50013381 </v>
    <v>       0.00013381       0.83214780       0.00013381 </v>
    <v>       0.00013381       0.83214780       0.50013381 </v>
    <v>       0.50013381       0.33214780       0.00013381 </v>
    <v>       0.50013381       0.33214780       0.50013381 </v>
    <v>       0.50013381       0.83214780       0.00013381 </v>
    <v>       0.50013381       0.83214780       0.50013381 </v>
    <v>       0.16785220       0.99986619       0.99986619 </v>
    <v>       0.16785220       0.99986619       0.49986619 </v>
    <v>       0.16785220       0.49986619       0.99986619 </v>
    <v>       0.16785220       0.49986619       0.49986619 </v>
    <v>       0.66785220       0.99986619       0.99986619 </v>
    <v>       0.66785220       0.99986619       0.49986619 </v>
    <v>       0.66785220       0.49986619       0.99986619 </v>
    <v>       0.66785220       0.49986619       0.49986619 </v>
    <v>       0.99986619       0.99986619       0.16785220 </v>
    <v>       0.99986619       0.99986619       0.66785220 </v>
    <v>       0.99986619       0.49986619       0.16785220 </v>
    <v>       0.99986619       0.49986619       0.66785220 </v>
    <v>       0.49986619       0.99986619       0.16785220 </v>
    <v>       0.49986619       0.99986619       0.66785220 </v>
    <v>       0.49986619       0.49986619       0.16785220 </v>
    <v>       0.49986619       0.49986619       0.66785220 </v>
    <v>       0.99986619       0.16785220       0.99986619 </v>
    <v>       0.99986619       0.16785220       0.49986619 </v>
    <v>       0.99986619       0.66785220       0.99986619 </v>
    <v>       0.99986619       0.66785220       0.49986619 </v>
    <v>       0.49986619       0.16785220       0.99986619 </v>
    <v>       0.49986619       0.16785220       0.49986619 </v>
    <v>       0.49986619       0.66785220       0.99986619 </v>
    <v>       0.49986619       0.66785220       0.49986619 </v>
    <v>       0.31526490       0.31526490       0.31526490 </v>
    <v>       0.31526490       0.31526490       0.81526490 </v>
    <v>       0.31526490       0.81526490       0.31526490 </v>
    <v>       0.31526490       0.81526490       0.81526490 </v>
    <v>       0.81526490       0.31526490       0.31526490 </v>
    <v>       0.81526490       0.31526490       0.81526490 </v>
    <v>       0.81526490       0.81526490       0.31526490 </v>
    <v>       0.81526490       0.81526490       0.81526490 </v>
    <v>       0.18473510       0.18473510       0.18473510 </v>
    <v>       0.18473510       0.18473510       0.68473510 </v>
    <v>       0.18473510       0.68473510       0.18473510 </v>
    <v>       0.18473510       0.68473510       0.68473510 </v>
    <v>       0.68473510       0.18473510       0.18473510 </v>
    <v>       0.68473510       0.18473510       0.68473510 </v>
    <v>       0.68473510       0.68473510       0.18473510 </v>
    <v>       0.68473510       0.68473510       0.68473510 </v>
   </varray>
  </structure>
  <varray name="forces" >
   <v>      -0.00917453       0.00870195       0.00874313 </v>
   <v>      -0.00917453       0.00870195       0.00874313 </v>
   <v>      -0.00917453       0.00870195       0.00874313 </v>
   <v>      -0.00917453       0.00870195       0.00874313 </v>
   <v>      -0.00917453       0.00870195       0.00874313 </v>
   <v>      -0.00917453       0.00870195       0.00874313 </v>
   <v>      -0.00917453       0.00870195       0.00874313 </v>
   <v>      -0.00917453       0.00870195       0.00874313 </v>
   <v>       0.01172044       0.00870195      -0.00482136 </v>
   <v>       0.01172044       0.00870195      -0.00482136 </v>
   <v>       0.01172044       0.00870195      -0.00482136 </v>
   <v>       0.01172044       0.00870195      -0.00482136 </v>
   <v>       0.01172044       0.00870195      -0.00482136 </v>
   <v>       0.01172044       0.00870195      -0.00482136 </v>
   <v>       0.01172044       0.00870195      -0.00482136 </v>
   <v>       0.01172044       0.00870195      -0.00482136 </v>
   <v>       0.00567582      -0.01129961       0.00874313 </v>
   <v>       0.00567582      -0.01129961       0.00874313 </v>
   <v>       0.00567582      -0.01129961       0.00874313 </v>
   <v>       0.00567582      -0.01129961       0.00874313 </v>
   <v>       0.00567582      -0.01129961       0.00874313 </v>
   <v>       0.00567582      -0.01129961       0.00874313 </v>
   <v>       0.00567582      -0.01129961       0.00874313 </v>
   <v>       0.00567582      -0.01129961       0.00874313 </v>
   <v>       0.00917453      -0.00870195      -0.00874313 </v>
   <v>       0.00917453      -0.00870195      -0.00874313 </v>
   <v>       0.00917453      -0.00870195      -0.00874313 </v>
   <v>       0.00917453      -0.00870195      -0.00874313 </v>
   <v>       0.00917453      -0.00870195      -0.00874313 </v>
   <v>       0.00917453      -0.00870195      -0.00874313 </v>
   <v>       0.00917453      -0.00870195      -0.00874313 </v>
   <v>       0.00917453      -0.00870195      -0.00874313 </v>
   <v>      -0.01172044      -0.00870195       0.00482136 </v>
   <v>      -0.01172044      -0.00870195       0.00482136 </v>
   <v>      -0.01172044      -0.00870195       0.00482136 </v>
   <v>      -0.01172044      -0.00870195       0.00482136 </v>
   <v>      -0.01172044      -0.00870195       0.00482136 </v>
   <v>      -0.01172044      -0.00870195       0.00482136 </v>
   <v>      -0.01172044      -0.00870195       0.00482136 </v>
   <v>      -0.01172044      -0.00870195       0.00482136 </v>
   <v>      -0.00567582       0.01129961      -0.00874313 </v>
   <v>      -0.00567582       0.01129961      -0.00874313 </v>
   <v>      -0.00567582       0.01129961      -0.00874313 </v>
   <v>      -0.00567582       0.01129961      -0.00874313 </v>
   <v>      -0.00567582       0.01129961      -0.00874313 </v>
   <v>      -0.00567582       0.01129961      -0.00874313 </v>
   <v>      -0.00567582       0.01129961      -0.00874313 </v>
   <v>      -0.00567582       0.01129961      -0.00874313 </v>
   <v>       0.01472062       0.01541734       0.02929352 </v>
   <v>       0.01472062       0.01541734       0.02929352 </v>
   <v>       0.01472062       0.01541734       0.02929352 </v>
   <v>       0.01472062       0.01541734       0.02929352 </v>
   <v>       0.01472062       0.01541734       0.02929352 </v>
   <v>       0.01472062       0.01541734       0.02929352 </v>
   <v>       0.01472062       0.01541734       0.02929352 </v>
   <v>       0.01472062       0.01541734       0.02929352 </v>
   <v>       0.02076523       0.01541734       0.02536952 </v>
   <v>       0.02076523       0.01541734       0.02536952 </v>
   <v>       0.02076523       0.01541734       0.02536952 </v>
   <v>       0.02076523       0.01541734       0.02536952 </v>
   <v>       0.02076523       0.01541734       0.02536952 </v>
   <v>       0.02076523       0.01541734       0.02536952 </v>
   <v>       0.02076523       0.01541734       0.02536952 </v>
   <v>       0.02076523       0.01541734       0.02536952 </v>
   <v>       0.01901661       0.00963119       0.02929352 </v>
   <v>       0.01901661       0.00963119       0.02929352 </v>
   <v>       0.01901661       0.00963119       0.02929352 </v>
   <v>       0.01901661       0.00963119       0.02929352 </v>
   <v>       0.01901661       0.00963119       0.02929352 </v>
   <v>       0.01901661       0.00963119       0.02929352 </v>
   <v>       0.01901661       0.00963119       0.02929352 </v>
   <v>       0.01901661       0.00963119       0.02929352 </v>
   <v>      -0.01472062      -0.01541734      -0.02929352 </v>
   <v>      -0.01472062      -0.01541734      -0.02929352 </v>
   <v>      -0.01472062      -0.01541734      -0.02929352 </v>
   <v>      -0.01472062      -0.01541734      -0.02929352 </v>
   <v>      -0.01472062      -0.01541734      -0.02929352 </v>
   <v>      -0.01472062      -0.01541734      -0.02929352 </v>
   <v>      -0.01472062      -0.01541734      -0.02929352 </v>
   <v>      -0.01472062      -0.01541734      -0.02929352 </v>
   <v>      -0.02076523      -0.01541734      -0.02536952 </v>
   <v>      -0.02076523      -0.01541734      -0.02536952 </v>
   <v>      -0.02076523      -0.01541734      -0.02536952 </v>
   <v>      -0.02076523      -0.01541734      -0.02536952 </v>
   <v>      -0.02076523      -0.01541734      -0.02536952 </v>
   <v>      -0.02076523      -0.01541734      -0.02536952 </v>
   <v>      -0.02076523      -0.01541734      -0.02536952 </v>
   <v>      -0.02076523      -0.01541734      -0.02536952 </v>
   <v>      -0.01901661      -0.00963119      -0.02929352 </v>
   <v>      -0.01901661      -0.00963119      -0.02929352 </v>
   <v>      -0.01901661      -0.00963119      -0.02929352 </v>
   <v>      -0.01901661      -0.00963119      -0.02929352 </v>
   <v>      -0.01901661      -0.00963119      -0.02929352 </v>
   <v>      -0.01901661      -0.00963119      -0.02929352 </v>
   <v>      -0.01901661      -0.00963119      -0.02929352 </v>
   <v>      -0.01901661      -0.00963119      -0.02929352 </v>
   <v>      -0.03369453      -0.02501682      -0.05190365 </v>
   <v>      -0.03369453      -0.02501682      -0.05190365 </v>
   <v>      -0.03369453      -0.02501682      -0.05190365 </v>
   <v>      -0.03369453      -0.02501682      -0.05190365 </v>
   <v>      -0.03369453      -0.02501682      -0.05190365 </v>
   <v>      -0.03369453      -0.02501682      -0.05190365 </v>
   <v>      -0.03369453      -0.02501682      -0.05190365 </v>
   <v>      -0.03369453      -0.02501682      -0.05190365 </v>
   <v>       0.03369453       0.02501682       0.05190365 </v>
   <v>       0.03369453       0.02501682       0.05190365 </v>
   <v>       0.03369453       0.02501682       0.05190365 </v>
   <v>       0.03369453       0.02501682       0.05190365 </v>
   <v>       0.03369453       0.02501682       0.05190365 </v>
   <v>       0.03369453       0.02501682       0.05190365 </v>
   <v>       0.03369453       0.02501682       0.05190365 </v>
   <v>       0.03369453       0.02501682       0.05190365 </v>
  </varray>
  <varray name="stress" >
   <v>      49.71680161      -0.79068268      -1.64045181 </v>
   <v>      -0.79068268      50.19471651      -1.21796999 </v>
   <v>      -1.64045181      -1.21796999      48.25474712 </v>
  </varray>
  <energy>
   <i name="e_fr_energy">   -793.75677336 </i>
   <i name="e_wo_entrp">   -793.75677336 </i>
   <i name="e_0_energy">   -793.75677336 </i>
  </energy>
  <time name="totalsc">   63.00   62.85</time>
 </calculation>
 <calculation>
  <scstep>
   <time name="dav">    3.26    3.26</time>
   <time name="total">    4.99    4.99</time>
   <energy>
    <i name="alphaZ">   1043.19914055 </i>
    <i name="ewald"> -10071.40425931 </i>
    <i name="hartreedc">  -1467.81330754 </i>
    <i name="XCdc">    933.60221481 </i>
    <i name="pawpsdc">  33837.92286374 </i>
    <i name="pawaedc"> -33775.14342695 </i>
    <i name="eentropy">      0.00000000 </i>
    <i name="bandstr">   -480.87516184 </i>
    <i name="atom">   9186.75495500 </i>
    <i name="e_fr_energy">   -793.75698154 </i>
    <i name="e_wo_entrp">   -793.75698154 </i>
    <i name="e_0_energy">   -793.75698154 </i>
   </energy>
  </scstep>
  <scstep>
   <time name="diag">    0.66    0.66</time>
   <time name="diis">    2.82    2.80</time>
   <time name="orth">    0.02    0.02</time>
   <time name="total">    5.24    5.21</time>
   <energy>
    <i name="e_fr_energy">   -793.75763661 </i>
    <i name="e_wo_entrp">   -793.75763661 </i>
    <i name="e_0_energy">   -793.75763661 </i>
   </energy>
  </scstep>
  <scstep>
   <time name="diag">    0.65    0.65</time>
   <time name="diis">    2.77    2.75</time>
   <time name="orth">    0.02    0.02</time>
   <time name="total">    5.17    5.15</time>
   <energy>
    <i name="e_fr_energy">   -793.75748772 </i>
    <i name="e_wo_entrp">   -793.75748772 </i>
    <i name="e_0_energy">   -793.75748772 </i>
   </energy>
  </scstep>
  <scstep>
   <time name="diag">    0.65    0.65</time>
   <time name="diis">    2.79    2.77</time>
   <time name="orth">    0.02    0.02</time>
   <time name="total">    5.20    5.18</time>
   <energy>
    <i name="e_fr_energy">   -793.75745677 </i>
    <i name="e_wo_entrp">   -793.75745677 </i>
    <i name="e_0_energy">   -793.75745677 </i>
   </energy>
  </scstep>
  <scstep>
   <time name="diag">    0.65    0.65</time>
   <time name="diis">    2.52    2.50</time>
   <time name="orth">    0.02    0.02</time>
   <time name="total">    4.90    4.88</time>
   <energy>
    <i name="e_fr_energy">   -793.75743464 </i>
    <i name="e_wo_entrp">   -793.75743464 </i>
    <i name="e_0_energy">   -793.75743464 </i>
   </energy>
  </scstep>
  <scstep>
   <time name="diag">    0.65    0.65</time>
   <time name="diis">    1.85    1.84</time>
   <time name="orth">    0.02    0.02</time>
   <time name="total">    4.26    4.26</time>
   <energy>
    <i name="e_fr_energy">   -793.75743567 </i>
    <i name="e_wo_entrp">   -793.75743567 </i>
    <i name="e_0_energy">   -793.75743567 </i>
   </energy>
  </scstep>
  <scstep>
   <time name="diag">    0.66    0.66</time>
   <time name="diis">    1.77    1.77</time>
   <time name="orth">    0.02    0.02</time>
   <time name="total">    4.17    4.16</time>
   <energy>
    <i name="e_fr_energy">   -793.75742688 </i>
    <i name="e_wo_entrp">   -793.75742688 </i>
    <i name="e_0_energy">   -793.75742688 </i>
   </energy>
  </scstep>
  <scstep>
   <time name="diag">    0.65    0.65</time>
   <time name="diis">    1.51    1.50</time>
   <time name="orth">    0.02    0.02</time>
   <time name="total">    3.93    3.92</time>
   <energy>
    <i name="e_fr_energy">   -793.75743034 </i>
    <i name="e_wo_entrp">   -793.75743034 </i>
    <i name="e_0_energy">   -793.75743034 </i>
   </energy>
  </scstep>
  <scstep>
   <time name="diag">    0.66    0.66</time>
   <time name="diis">    1.38    1.37</time>
   <time name="orth">    0.02    0.02</time>
   <time name="total">    2.29    2.29</time>
   <energy>
    <i name="alphaZ">   1043.19914055 </i>
    <i name="ewald"> -10071.40425931 </i>
    <i name="hartreedc">  -1467.80970886 </i>
    <i name="XCdc">    933.59288604 </i>
    <i name="pawpsdc">  33847.58201663 </i>
    <i name="pawaedc"> -33784.80536821 </i>
    <i name="eentropy">      0.00000000 </i>
    <i name="bandstr">   -480.86709222 </i>
    <i name="atom">   9186.75495500 </i>
    <i name="e_fr_energy">   -793.75743036 </i>
    <i name="e_wo_entrp">   -793.75743036 </i>
    <i name="e_0_energy">   -793.75743036 </i>
   </energy>
  </scstep>
  <structure>
   <crystal>
    <varray name="basis" >
     <v>       9.36258692       0.07483621       4.28252143 </v>
     <v>       2.78010275       8.94061989       4.28252143 </v>
     <v>       0.10079525       0.07483622      10.29503969 </v>
    </varray>
    <i name="volume">    853.69179682 </i>
    <varray name="rec_basis" >
     <v>       0.10744340      -0.03302083      -0.00081191 </v>
     <v>      -0.00052707       0.11240186      -0.00081191 </v>
     <v>      -0.04447496      -0.03302085       0.09780963 </v>
    </varray>
   </crystal>
   <varray name="positions" >
    <v>       0.16022520       0.40039693       0.40039693 </v>
    <v>       0.16022520       0.40039693       0.90039693 </v>
    <v>       0.16022520       0.90039693       0.40039693 </v>
    <v>       0.16022520       0.90039693       0.90039693 </v>
    <v>       0.66022520       0.40039693       0.40039693 </v>
    <v>       0.66022520       0.40039693       0.90039693 </v>
    <v>       0.66022520       0.90039693       0.40039693 </v>
    <v>       0.66022520       0.90039693       0.90039693 </v>
    <v>       0.40039693       0.40039693       0.16022520 </v>
    <v>       0.40039693       0.40039693       0.66022520 </v>
    <v>       0.40039693       0.90039693       0.16022520 </v>
    <v>       0.40039693       0.90039693       0.66022520 </v>
    <v>       0.90039693       0.40039693       0.16022520 </v>
    <v>       0.90039693       0.40039693       0.66022520 </v>
    <v>       0.90039693       0.90039693       0.16022520 </v>
[...]
       <r>    -7.4752    10.7973    38.7297 </r>
       <r>    -7.3901     6.1263    39.4414 </r>
       <r>    -7.3049     2.8352    39.8131 </r>
       <r>    -7.2197     2.7125    39.9671 </r>
       <r>    -7.1345    28.1415    41.4105 </r>
       <r>    -7.0494     4.4662    43.9776 </r>
       <r>    -6.9642    27.2066    44.7108 </r>
       <r>    -6.8790    12.5827    46.8166 </r>
       <r>    -6.7938     6.0136    47.5903 </r>
       <r>    -6.7086     2.0138    47.9140 </r>
       <r>    -6.6235     0.2269    47.9967 </r>
       <r>    -6.5383     0.0000    48.0000 </r>
       <r>    -6.4531    17.2210    48.9177 </r>
       <r>    -6.3679    17.9267    50.4538 </r>
       <r>    -6.2828    17.5500    51.9884 </r>
       <r>    -6.1976    68.3310    54.2931 </r>
       <r>    -6.1124     7.4451    56.1402 </r>
       <r>    -6.0272    19.9785    57.4846 </r>
       <r>    -5.9421    21.5350    59.2697 </r>
       <r>    -5.8569    54.7953    62.0518 </r>
       <r>    -5.7717    16.5633    65.0404 </r>
       <r>    -5.6865    28.3327    67.0344 </r>
       <r>    -5.6013    21.6171    69.3036 </r>
       <r>    -5.5162    19.7098    70.7733 </r>
       <r>    -5.4310    28.9754    72.9043 </r>
       <r>    -5.3458    30.1982    75.4802 </r>
       <r>    -5.2606    25.3890    77.8916 </r>
       <r>    -5.1755    20.4852    79.3338 </r>
       <r>    -5.0903    17.9146    81.3241 </r>
       <r>    -5.0051     8.2916    81.9162 </r>
       <r>    -4.9199    16.5892    83.1657 </r>
       <r>    -4.8347     0.8659    83.9955 </r>
       <r>    -4.7496    16.5782    84.9790 </r>
       <r>    -4.6644     7.3552    85.8334 </r>
       <r>    -4.5792    41.4261    88.7544 </r>
       <r>    -4.4940    21.0281    90.9093 </r>
       <r>    -4.4089    17.1839    92.5364 </r>
       <r>    -4.3237    13.3772    93.8377 </r>
       <r>    -4.2385     9.6080    94.8164 </r>
       <r>    -4.1533     5.8763    95.4756 </r>
       <r>    -4.0682     2.3441    95.8193 </r>
       <r>    -3.9830     0.9354    95.9544 </r>
       <r>    -3.8978     0.1629    95.9967 </r>
       <r>    -3.8126     0.0015    96.0000 </r>
       <r>    -3.7274     0.4379    96.0132 </r>
       <r>    -3.6423     1.6885    96.0968 </r>
       <r>    -3.5571     5.6873    96.3910 </r>
       <r>    -3.4719    10.6427    97.0842 </r>
       <r>    -3.3867    15.9132    98.2130 </r>
       <r>    -3.3016    21.4987    99.8041 </r>
       <r>    -3.2164    32.1763   102.2172 </r>
       <r>    -3.1312    14.0372   104.1829 </r>
       <r>    -3.0460     7.2730   105.1303 </r>
       <r>    -2.9608     8.2217   105.7452 </r>
       <r>    -2.8757    29.4689   107.8889 </r>
       <r>    -2.7905    23.5877   109.7158 </r>
       <r>    -2.7053    24.1009   111.7606 </r>
       <r>    -2.6201    26.8253   113.8988 </r>
       <r>    -2.5350    25.9357   116.2312 </r>
       <r>    -2.4498    19.9680   118.2839 </r>
       <r>    -2.3646    10.6178   119.4151 </r>
       <r>    -2.2794    48.9244   121.9162 </r>
       <r>    -2.1943    22.3832   124.5936 </r>
       <r>    -2.1091    15.3450   126.1935 </r>
       <r>    -2.0239    34.5316   128.3595 </r>
       <r>    -1.9387    40.9457   131.9738 </r>
       <r>    -1.8535    53.5207   135.1989 </r>
       <r>    -1.7684    42.1768   139.8092 </r>
       <r>    -1.6832    44.0860   143.5269 </r>
       <r>    -1.5980    22.0923   147.0070 </r>
       <r>    -1.5128     5.1377   147.8814 </r>
       <r>    -1.4277    13.6522   148.4761 </r>
       <r>    -1.3425    36.4672   150.7617 </r>
       <r>    -1.2573    39.1958   154.1054 </r>
       <r>    -1.1721   106.2030   157.7333 </r>
       <r>    -1.0869    18.3500   159.6459 </r>
       <r>    -1.0018    17.8064   161.1824 </r>
       <r>    -0.9166    45.7256   163.1694 </r>
       <r>    -0.8314    48.7838   167.3185 </r>
       <r>    -0.7462    41.9860   171.1793 </r>
       <r>    -0.6611    34.0533   174.4534 </r>
       <r>    -0.5759    43.9353   178.6918 </r>
       <r>    -0.4907     8.1051   179.8091 </r>
       <r>    -0.4055     6.7301   180.3678 </r>
       <r>    -0.3204    12.2795   181.1874 </r>
       <r>    -0.2352    15.4663   182.3796 </r>
       <r>    -0.1500    17.8124   183.7958 </r>
       <r>    -0.0648    19.6802   185.3977 </r>
       <r>     0.0204    20.8315   187.1281 </r>
       <r>     0.1055    20.1039   189.0143 </r>
       <r>     0.1907    12.5723   189.9001 </r>
       <r>     0.2759    23.4101   191.2105 </r>
       <r>     0.3611    27.5949   193.7230 </r>
       <r>     0.4462    41.4373   196.2430 </r>
       <r>     0.5314    75.4869   202.0287 </r>
       <r>     0.6166    65.7757   208.7814 </r>
       <r>     0.7018    32.6754   212.0402 </r>
       <r>     0.7870    37.5611   214.8043 </r>
       <r>     0.8721    30.4878   217.2650 </r>
       <r>     0.9573    27.8287   219.7921 </r>
       <r>     1.0425    29.4444   222.0364 </r>
       <r>     1.1277    25.6122   225.2913 </r>
       <r>     1.2128    49.9785   228.9989 </r>
       <r>     1.2980    51.7788   235.0032 </r>
       <r>     1.3832    36.9074   236.5921 </r>
       <r>     1.4684    89.0293   244.0790 </r>
       <r>     1.5535    56.1887   250.4785 </r>
       <r>     1.6387    24.8078   252.8973 </r>
       <r>     1.7239    21.4734   254.8454 </r>
       <r>     1.8091    18.6718   256.5572 </r>
       <r>     1.8943    15.5639   258.0181 </r>
       <r>     1.9794    11.6272   259.1835 </r>
       <r>     2.0646     5.4974   259.8754 </r>
       <r>     2.1498    34.5547   261.0840 </r>
       <r>     2.2350   111.8969   268.4855 </r>
       <r>     2.3201   106.2327   278.1189 </r>
       <r>     2.4053    71.0619   285.6130 </r>
       <r>     2.4905    60.6404   289.1198 </r>
       <r>     2.5757    39.1105   293.7810 </r>
       <r>     2.6608    47.4574   296.3379 </r>
       <r>     2.7460    22.6331   298.7850 </r>
       <r>     2.8312    61.7626   302.6667 </r>
       <r>     2.9164    61.2284   307.9907 </r>
       <r>     3.0016    73.4582   315.7261 </r>
       <r>     3.0867    52.2025   319.5970 </r>
       <r>     3.1719    40.6109   323.6338 </r>
       <r>     3.2571    24.3929   326.3595 </r>
       <r>     3.3423    42.6079   330.5029 </r>
       <r>     3.4274     5.6816   331.8621 </r>
       <r>     3.5126     2.6929   332.0289 </r>
       <r>     3.5978    24.2956   333.0805 </r>
       <r>     3.6830    58.5579   336.3836 </r>
       <r>     3.7682    14.9534   341.1755 </r>
       <r>     3.8533    29.9903   342.9935 </r>
       <r>     3.9385    30.9446   345.6840 </r>
       <r>     4.0237    18.4531   347.8832 </r>
       <r>     4.1089    13.7977   349.1902 </r>
       <r>     4.1940    31.9932   351.0574 </r>
       <r>     4.2792     2.1412   352.3318 </r>
       <r>     4.3644     3.0536   352.5513 </r>
       <r>     4.4496     4.2161   352.8591 </r>
       <r>     4.5347     5.6289   353.2766 </r>
       <r>     4.6199    10.2076   353.8460 </r>
       <r>     4.7051    14.2781   355.0783 </r>
       <r>     4.7903     4.7823   355.9196 </r>
       <r>     4.8755     0.0000   356.0000 </r>
       <r>     4.9606     0.0000   356.0000 </r>
       <r>     5.0458     0.0000   356.0000 </r>
       <r>     5.1310     6.5329   356.0539 </r>
       <r>     5.2162    63.1505   359.6850 </r>
       <r>     5.3013    32.8196   362.5347 </r>
       <r>     5.3865    36.2167   365.6085 </r>
       <r>     5.4717    11.7402   368.0000 </r>
       <r>     5.5569     0.0000   368.0000 </r>
       <r>     5.6421     0.5028   368.0099 </r>
       <r>     5.7272     3.4050   368.1460 </r>
       <r>     5.8124    10.2029   368.7498 </r>
       <r>     5.8976    13.5740   369.7868 </r>
       <r>     5.9828    13.5182   370.9649 </r>
       <r>     6.0679    10.0356   371.9924 </r>
       <r>     6.1531    26.9137   373.9673 </r>
       <r>     6.2383    20.3597   375.5055 </r>
       <r>     6.3235    20.9007   377.2973 </r>
       <r>     6.4086    20.3181   378.9023 </r>
       <r>     6.4938    12.9920   382.0175 </r>
       <r>     6.5790     7.8486   382.8854 </r>
       <r>     6.6642     4.9847   383.4238 </r>
       <r>     6.7494     2.8366   383.7527 </r>
       <r>     6.8345     1.2900   383.9242 </r>
       <r>     6.9197     0.3450   383.9895 </r>
       <r>     7.0049     0.0015   384.0000 </r>
       <r>     7.0901     0.0000   384.0000 </r>
       <r>     7.1752     0.0000   384.0000 </r>
       <r>     7.2604     0.0000   384.0000 </r>
       <r>     7.3456     0.0000   384.0000 </r>
       <r>     7.4308     0.0000   384.0000 </r>
       <r>     7.5160     0.0000   384.0000 </r>
       <r>     7.6011     0.0000   384.0000 </r>
       <r>     7.6863     0.0000   384.0000 </r>
       <r>     7.7715     0.0000   384.0000 </r>
       <r>     7.8567     0.0000   384.0000 </r>
       <r>     7.9418     0.0000   384.0000 </r>
       <r>     8.0270     0.0000   384.0000 </r>
       <r>     8.1122     0.0286   384.0003 </r>
       <r>     8.1974     0.4585   384.0173 </r>
       <r>     8.2825     1.4049   384.0930 </r>
       <r>     8.3677     2.8676   384.2713 </r>
       <r>     8.4529     4.8468   384.5962 </r>
       <r>     8.5381     7.6595   385.1122 </r>
       <r>     8.6233    13.3970   386.0822 </r>
       <r>     8.7084     8.8133   387.1014 </r>
       <r>     8.7936     6.4765   387.6967 </r>
       <r>     8.8788    21.4239   388.8257 </r>
       <r>     8.9640    27.3162   390.9967 </r>
       <r>     9.0491    22.9180   393.1709 </r>
       <r>     9.1343    17.3972   394.8522 </r>
       <r>     9.2195    20.8860   396.4443 </r>
       <r>     9.3047    18.4407   398.1696 </r>
       <r>     9.3898    10.9775   399.4078 </r>
       <r>     9.4750    11.1449   400.3085 </r>
       <r>     9.5602    17.1567   401.4723 </r>
       <r>     9.6454    70.9198   403.4162 </r>
       <r>     9.7306    41.6722   408.7460 </r>
       <r>     9.8157    12.5811   409.7724 </r>
       <r>     9.9009    15.3299   410.9648 </r>
       <r>     9.9861    16.5198   412.3410 </r>
       <r>    10.0713    14.9124   413.6995 </r>
       <r>    10.1564    30.5219   415.3155 </r>
       <r>    10.2416    30.9378   416.9249 </r>
       <r>    10.3268    67.5051   422.3268 </r>
       <r>    10.4120    21.9569   424.9518 </r>
       <r>    10.4972    40.4374   427.9916 </r>
       <r>    10.5823    23.7453   429.9241 </r>
       <r>    10.6675     5.9830   432.5702 </r>
       <r>    10.7527     8.4992   433.1826 </r>
       <r>    10.8379    11.6463   434.0362 </r>
       <r>    10.9230    13.4571   435.1081 </r>
       <r>    11.0082    14.9062   436.3185 </r>
       <r>    11.0934    15.9987   437.6373 </r>
       <r>    11.1786    16.7346   439.0339 </r>
       <r>    11.2637    17.1138   440.4779 </r>
       <r>    11.3489    17.1364   441.9391 </r>
       <r>    11.4341    16.8023   443.3871 </r>
       <r>    11.5193    13.7188   444.7670 </r>
       <r>    11.6045    24.5832   446.7779 </r>
       <r>    11.6896    47.5393   449.9560 </r>
       <r>    11.7748    21.9661   451.9233 </r>
       <r>    11.8600    20.1945   453.6900 </r>
       <r>    11.9452    21.1538   455.4405 </r>
       <r>    12.0303    21.3578   457.2687 </r>
       <r>    12.1155    10.9842   458.5192 </r>
       <r>    12.2007     9.6429   459.4114 </r>
       <r>    12.2859    42.7612   461.0991 </r>
       <r>    12.3711     9.4850   463.9669 </r>
       <r>    12.4562    20.2988   465.6427 </r>
       <r>    12.5414     0.0000   466.0000 </r>
       <r>    12.6266     0.0000   466.0000 </r>
       <r>    12.7118     0.0000   466.0000 </r>
       <r>    12.7969     0.0000   466.0000 </r>
       <r>    12.8821     0.0000   466.0000 </r>
       <r>    12.9673     0.0000   466.0000 </r>
       <r>    13.0525     0.0000   466.0000 </r>
       <r>    13.1376     0.0000   466.0000 </r>
       <r>    13.2228     0.0000   466.0000 </r>
       <r>    13.3080     0.0000   466.0000 </r>
       <r>    13.3932     0.0000   466.0000 </r>
       <r>    13.4784     0.0000   466.0000 </r>
       <r>    13.5635     0.0000   466.0000 </r>
       <r>    13.6487     0.0000   466.0000 </r>
      </set>
     </set>
    </array>
   </total>
  </dos>
 </calculation>
 <structure name="finalpos" >
  <crystal>
   <varray name="basis" >
    <v>       9.36204063       0.07312560       4.27975565 </v>
    <v>       2.77830725       8.94059192       4.27975565 </v>
    <v>       0.09849135       0.07312567      10.29341485 </v>
   </varray>
   <i name="volume">    853.69179682 </i>
   <varray name="rec_basis" >
    <v>       0.10743486      -0.03300576      -0.00079350 </v>
    <v>      -0.00051512       0.11238933      -0.00079350 </v>
    <v>      -0.04445467      -0.03300579       0.09780933 </v>
   </varray>
  </crystal>
  <varray name="positions" >
   <v>       0.16014262       0.40029787       0.40029787 </v>
   <v>       0.16014262       0.40029787       0.90029787 </v>
   <v>       0.16014262       0.90029787       0.40029787 </v>
   <v>       0.16014262       0.90029787       0.90029787 </v>
   <v>       0.66014262       0.40029787       0.40029787 </v>
   <v>       0.66014262       0.40029787       0.90029787 </v>
   <v>       0.66014262       0.90029787       0.40029787 </v>
   <v>       0.66014262       0.90029787       0.90029787 </v>
   <v>       0.40029787       0.40029787       0.16014262 </v>
   <v>       0.40029787       0.40029787       0.66014262 </v>
   <v>       0.40029787       0.90029787       0.16014262 </v>
   <v>       0.40029787       0.90029787       0.66014262 </v>
   <v>       0.90029787       0.40029787       0.16014262 </v>
   <v>       0.90029787       0.40029787       0.66014262 </v>
   <v>       0.90029787       0.90029787       0.16014262 </v>
   <v>       0.90029787       0.90029787       0.66014262 </v>
   <v>       0.40029787       0.16014262       0.40029787 </v>
   <v>       0.40029787       0.16014262       0.90029787 </v>
   <v>       0.40029787       0.66014262       0.40029787 </v>
   <v>       0.40029787       0.66014262       0.90029787 </v>
   <v>       0.90029787       0.16014262       0.40029787 </v>
   <v>       0.90029787       0.16014262       0.90029787 </v>
   <v>       0.90029787       0.66014262       0.40029787 </v>
   <v>       0.90029787       0.66014262       0.90029787 </v>
   <v>       0.33985738       0.09970213       0.09970213 </v>
   <v>       0.33985738       0.09970213       0.59970213 </v>
   <v>       0.33985738       0.59970213       0.09970213 </v>
   <v>       0.33985738       0.59970213       0.59970213 </v>
   <v>       0.83985738       0.09970213       0.09970213 </v>
   <v>       0.83985738       0.09970213       0.59970213 </v>
   <v>       0.83985738       0.59970213       0.09970213 </v>
   <v>       0.83985738       0.59970213       0.59970213 </v>
   <v>       0.09970213       0.09970213       0.33985738 </v>
   <v>       0.09970213       0.09970213       0.83985738 </v>
   <v>       0.09970213       0.59970213       0.33985738 </v>
   <v>       0.09970213       0.59970213       0.83985738 </v>
   <v>       0.59970213       0.09970213       0.33985738 </v>
   <v>       0.59970213       0.09970213       0.83985738 </v>
   <v>       0.59970213       0.59970213       0.33985738 </v>
   <v>       0.59970213       0.59970213       0.83985738 </v>
   <v>       0.09970213       0.33985738       0.09970213 </v>
   <v>       0.09970213       0.33985738       0.59970213 </v>
   <v>       0.09970213       0.83985738       0.09970213 </v>
   <v>       0.09970213       0.83985738       0.59970213 </v>
   <v>       0.59970213       0.33985738       0.09970213 </v>
   <v>       0.59970213       0.33985738       0.59970213 </v>
   <v>       0.59970213       0.83985738       0.09970213 </v>
   <v>       0.59970213       0.83985738       0.59970213 </v>
   <v>       0.33215115       0.00021236       0.00021236 </v>
   <v>       0.33215115       0.00021236       0.50021236 </v>
   <v>       0.33215115       0.50021236       0.00021236 </v>
   <v>       0.33215115       0.50021236       0.50021236 </v>
   <v>       0.83215115       0.00021236       0.00021236 </v>
   <v>       0.83215115       0.00021236       0.50021236 </v>
   <v>       0.83215115       0.50021236       0.00021236 </v>
   <v>       0.83215115       0.50021236       0.50021236 </v>
   <v>       0.00021236       0.00021236       0.33215115 </v>
   <v>       0.00021236       0.00021236       0.83215115 </v>
   <v>       0.00021236       0.50021236       0.33215115 </v>
   <v>       0.00021236       0.50021236       0.83215115 </v>
   <v>       0.50021236       0.00021236       0.33215115 </v>
   <v>       0.50021236       0.00021236       0.83215115 </v>
   <v>       0.50021236       0.50021236       0.33215115 </v>
   <v>       0.50021236       0.50021236       0.83215115 </v>
   <v>       0.00021236       0.33215115       0.00021236 </v>
   <v>       0.00021236       0.33215115       0.50021236 </v>
   <v>       0.00021236       0.83215115       0.00021236 </v>
   <v>       0.00021236       0.83215115       0.50021236 </v>
   <v>       0.50021236       0.33215115       0.00021236 </v>
   <v>       0.50021236       0.33215115       0.50021236 </v>
   <v>       0.50021236       0.83215115       0.00021236 </v>
   <v>       0.50021236       0.83215115       0.50021236 </v>
   <v>       0.16784885       0.99978764       0.99978764 </v>
   <v>       0.16784885       0.99978764       0.49978764 </v>
   <v>       0.16784885       0.49978764       0.99978764 </v>
   <v>       0.16784885       0.49978764       0.49978764 </v>
   <v>       0.66784885       0.99978764       0.99978764 </v>
   <v>       0.66784885       0.99978764       0.49978764 </v>
   <v>       0.66784885       0.49978764       0.99978764 </v>
   <v>       0.66784885       0.49978764       0.49978764 </v>
   <v>       0.99978764       0.99978764       0.16784885 </v>
   <v>       0.99978764       0.99978764       0.66784885 </v>
   <v>       0.99978764       0.49978764       0.16784885 </v>
   <v>       0.99978764       0.49978764       0.66784885 </v>
   <v>       0.49978764       0.99978764       0.16784885 </v>
   <v>       0.49978764       0.99978764       0.66784885 </v>
   <v>       0.49978764       0.49978764       0.16784885 </v>
   <v>       0.49978764       0.49978764       0.66784885 </v>
   <v>       0.99978764       0.16784885       0.99978764 </v>
   <v>       0.99978764       0.16784885       0.49978764 </v>
   <v>       0.99978764       0.66784885       0.99978764 </v>
   <v>       0.99978764       0.66784885       0.49978764 </v>
   <v>       0.49978764       0.16784885       0.99978764 </v>
   <v>       0.49978764       0.16784885       0.49978764 </v>
   <v>       0.49978764       0.66784885       0.99978764 </v>
   <v>       0.49978764       0.66784885       0.49978764 </v>
   <v>       0.31501314       0.31501314       0.31501314 </v>
   <v>       0.31501314       0.31501314       0.81501314 </v>
   <v>       0.31501314       0.81501314       0.31501314 </v>
   <v>       0.31501314       0.81501314       0.81501314 </v>
   <v>       0.81501314       0.31501314       0.31501314 </v>
   <v>       0.81501314       0.31501314       0.81501314 </v>
   <v>       0.81501314       0.81501314       0.31501314 </v>
   <v>       0.81501314       0.81501314       0.81501314 </v>
   <v>       0.18498686       0.18498686       0.18498686 </v>
   <v>       0.18498686       0.18498686       0.68498686 </v>
   <v>       0.18498686       0.68498686       0.18498686 </v>
   <v>       0.18498686       0.68498686       0.68498686 </v>
   <v>       0.68498686       0.18498686       0.18498686 </v>
   <v>       0.68498686       0.18498686       0.68498686 </v>
   <v>       0.68498686       0.68498686       0.18498686 </v>
   <v>       0.68498686       0.68498686       0.68498686 </v>
  </varray>
 </structure>
</modeling>
