unknown system                          
            1
     9.361708    0.072083    4.278070
     2.777213    8.940575    4.278070
     0.097087    0.072083   10.292425
   B    C 
    96    16
unknown system                          
            1
     9.361708    0.072083    4.278070
     2.777213    8.940575    4.278070
     0.097087    0.072083   10.292425
   B    C 
    96    16
Direct configuration=     1
   0.16039500  0.40051500  0.40051500
   0.16039500  0.40051500  0.90051500
   0.16039500  0.90051500  0.40051500
   0.16039500  0.90051500  0.90051500
   0.66039500  0.40051500  0.40051500
   0.66039500  0.40051500  0.90051500
   0.66039500  0.90051500  0.40051500
   0.66039500  0.90051500  0.90051500
   0.40051500  0.40051500  0.16039500
   0.40051500  0.40051500  0.66039500
   0.40051500  0.90051500  0.16039500
   0.40051500  0.90051500  0.66039500
   0.90051500  0.40051500  0.16039500
   0.90051500  0.40051500  0.66039500
   0.90051500  0.90051500  0.16039500
   0.90051500  0.90051500  0.66039500
   0.40051500  0.16039500  0.40051500
   0.40051500  0.16039500  0.90051500
   0.40051500  0.66039500  0.40051500
   0.40051500  0.66039500  0.90051500
   0.90051500  0.16039500  0.40051500
   0.90051500  0.16039500  0.90051500
   0.90051500  0.66039500  0.40051500
   0.90051500  0.66039500  0.90051500
   0.33960500  0.09948500  0.09948500
   0.33960500  0.09948500  0.59948500
   0.33960500  0.59948500  0.09948500
   0.33960500  0.59948500  0.59948500
   0.83960500  0.09948500  0.09948500
   0.83960500  0.09948500  0.59948500
   0.83960500  0.59948500  0.09948500
   0.83960500  0.59948500  0.59948500
   0.09948500  0.09948500  0.33960500
   0.09948500  0.09948500  0.83960500
   0.09948500  0.59948500  0.33960500
   0.09948500  0.59948500  0.83960500
   0.59948500  0.09948500  0.33960500
   0.59948500  0.09948500  0.83960500
   0.59948500  0.59948500  0.33960500
   0.59948500  0.59948500  0.83960500
   0.09948500  0.33960500  0.09948500
   0.09948500  0.33960500  0.59948500
   0.09948500  0.83960500  0.09948500
   0.09948500  0.83960500  0.59948500
   0.59948500  0.33960500  0.09948500
   0.59948500  0.33960500  0.59948500
   0.59948500  0.83960500  0.09948500
   0.59948500  0.83960500  0.59948500
   0.33229300  0.00011500  0.00011500
   0.33229300  0.00011500  0.50011500
   0.33229300  0.50011500  0.00011500
   0.33229300  0.50011500  0.50011500
   0.83229300  0.00011500  0.00011500
   0.83229300  0.00011500  0.50011500
   0.83229300  0.50011500  0.00011500
   0.83229300  0.50011500  0.50011500
   0.00011500  0.00011500  0.33229300
   0.00011500  0.00011500  0.83229300
   0.00011500  0.50011500  0.33229300
   0.00011500  0.50011500  0.83229300
   0.50011500  0.00011500  0.33229300
   0.50011500  0.00011500  0.83229300
   0.50011500  0.50011500  0.33229300
   0.50011500  0.50011500  0.83229300
   0.00011500  0.33229300  0.00011500
   0.00011500  0.33229300  0.50011500
   0.00011500  0.83229300  0.00011500
   0.00011500  0.83229300  0.50011500
   0.50011500  0.33229300  0.00011500
   0.50011500  0.33229300  0.50011500
   0.50011500  0.83229300  0.00011500
   0.50011500  0.83229300  0.50011500
   0.16770700  0.99988500  0.99988500
   0.16770700  0.99988500  0.49988500
   0.16770700  0.49988500  0.99988500
   0.16770700  0.49988500  0.49988500
   0.66770700  0.99988500  0.99988500
   0.66770700  0.99988500  0.49988500
   0.66770700  0.49988500  0.99988500
   0.66770700  0.49988500  0.49988500
   0.99988500  0.99988500  0.16770700
   0.99988500  0.99988500  0.66770700
   0.99988500  0.49988500  0.16770700
   0.99988500  0.49988500  0.66770700
   0.49988500  0.99988500  0.16770700
   0.49988500  0.99988500  0.66770700
   0.49988500  0.49988500  0.16770700
   0.49988500  0.49988500  0.66770700
   0.99988500  0.16770700  0.99988500
   0.99988500  0.16770700  0.49988500
   0.99988500  0.66770700  0.99988500
   0.99988500  0.66770700  0.49988500
   0.49988500  0.16770700  0.99988500
   0.49988500  0.16770700  0.49988500
   0.49988500  0.66770700  0.99988500
   0.49988500  0.66770700  0.49988500
   0.31539700  0.31539700  0.31539700
   0.31539700  0.31539700  0.81539700
   0.31539700  0.81539700  0.31539700
   0.31539700  0.81539700  0.81539700
   0.81539700  0.31539700  0.31539700
   0.81539700  0.31539700  0.81539700
   0.81539700  0.81539700  0.31539700
   0.81539700  0.81539700  0.81539700
   0.18460300  0.18460300  0.18460300
   0.18460300  0.18460300  0.68460300
   0.18460300  0.68460300  0.18460300
   0.18460300  0.68460300  0.68460300
   0.68460300  0.18460300  0.18460300
   0.68460300  0.18460300  0.68460300
   0.68460300  0.68460300  0.18460300
   0.68460300  0.68460300  0.68460300
unknown system                          
            1
     9.362886    0.075772    4.284035
     2.781085    8.940636    4.284035
     0.102056    0.075772   10.295929
   B    C 
    96    16
Direct configuration=     2
   0.16016751  0.40035683  0.40035683
   0.16016751  0.40035683  0.90035683
   0.16016751  0.90035683  0.40035683
   0.16016751  0.90035683  0.90035683
   0.66016751  0.40035683  0.40035683
   0.66016751  0.40035683  0.90035683
   0.66016751  0.90035683  0.40035683
   0.66016751  0.90035683  0.90035683
   0.40035683  0.40035683  0.16016751
   0.40035683  0.40035683  0.66016751
   0.40035683  0.90035683  0.16016751
   0.40035683  0.90035683  0.66016751
   0.90035683  0.40035683  0.16016751
   0.90035683  0.40035683  0.66016751
   0.90035683  0.90035683  0.16016751
   0.90035683  0.90035683  0.66016751
   0.40035683  0.16016751  0.40035683
   0.40035683  0.16016751  0.90035683
   0.40035683  0.66016751  0.40035683
   0.40035683  0.66016751  0.90035683
   0.90035683  0.16016751  0.40035683
   0.90035683  0.16016751  0.90035683
   0.90035683  0.66016751  0.40035683
   0.90035683  0.66016751  0.90035683
   0.33983249  0.09964317  0.09964317
   0.33983249  0.09964317  0.59964317
   0.33983249  0.59964317  0.09964317
   0.33983249  0.59964317  0.59964317
   0.83983249  0.09964317  0.09964317
   0.83983249  0.09964317  0.59964317
   0.83983249  0.59964317  0.09964317
   0.83983249  0.59964317  0.59964317
   0.09964317  0.09964317  0.33983249
   0.09964317  0.09964317  0.83983249
   0.09964317  0.59964317  0.33983249
   0.09964317  0.59964317  0.83983249
   0.59964317  0.09964317  0.33983249
   0.59964317  0.09964317  0.83983249
   0.59964317  0.59964317  0.33983249
   0.59964317  0.59964317  0.83983249
   0.09964317  0.33983249  0.09964317
   0.09964317  0.33983249  0.59964317
   0.09964317  0.83983249  0.09964317
   0.09964317  0.83983249  0.59964317
   0.59964317  0.33983249  0.09964317
   0.59964317  0.33983249  0.59964317
   0.59964317  0.83983249  0.09964317
   0.59964317  0.83983249  0.59964317
   0.33214780  0.00013381  0.00013381
   0.33214780  0.00013381  0.50013381
   0.33214780  0.50013381  0.00013381
   0.33214780  0.50013381  0.50013381
   0.83214780  0.00013381  0.00013381
   0.83214780  0.00013381  0.50013381
   0.83214780  0.50013381  0.00013381
   0.83214780  0.50013381  0.50013381
   0.00013381  0.00013381  0.33214780
   0.00013381  0.00013381  0.83214780
   0.00013381  0.50013381  0.33214780
   0.00013381  0.50013381  0.83214780
   0.50013381  0.00013381  0.33214780
   0.50013381  0.00013381  0.83214780
   0.50013381  0.50013381  0.33214780
   0.50013381  0.50013381  0.83214780
   0.00013381  0.33214780  0.00013381
   0.00013381  0.33214780  0.50013381
   0.00013381  0.83214780  0.00013381
   0.00013381  0.83214780  0.50013381
   0.50013381  0.33214780  0.00013381
   0.50013381  0.33214780  0.50013381
   0.50013381  0.83214780  0.00013381
   0.50013381  0.83214780  0.50013381
   0.16785220  0.99986619  0.99986619
   0.16785220  0.99986619  0.49986619
   0.16785220  0.49986619  0.99986619
   0.16785220  0.49986619  0.49986619
   0.66785220  0.99986619  0.99986619
   0.66785220  0.99986619  0.49986619
   0.66785220  0.49986619  0.99986619
   0.66785220  0.49986619  0.49986619
   0.99986619  0.99986619  0.16785220
   0.99986619  0.99986619  0.66785220
   0.99986619  0.49986619  0.16785220
   0.99986619  0.49986619  0.66785220
   0.49986619  0.99986619  0.16785220
   0.49986619  0.99986619  0.66785220
   0.49986619  0.49986619  0.16785220
   0.49986619  0.49986619  0.66785220
   0.99986619  0.16785220  0.99986619
   0.99986619  0.16785220  0.49986619
   0.99986619  0.66785220  0.99986619
   0.99986619  0.66785220  0.49986619
   0.49986619  0.16785220  0.99986619
   0.49986619  0.16785220  0.49986619
   0.49986619  0.66785220  0.99986619
   0.49986619  0.66785220  0.49986619
   0.31526490  0.31526490  0.31526490
   0.31526490  0.31526490  0.81526490
   0.31526490  0.81526490  0.31526490
   0.31526490  0.81526490  0.81526490
   0.81526490  0.31526490  0.31526490
   0.81526490  0.31526490  0.81526490
   0.81526490  0.81526490  0.31526490
   0.81526490  0.81526490  0.81526490
   0.18473510  0.18473510  0.18473510
   0.18473510  0.18473510  0.68473510
   0.18473510  0.68473510  0.18473510
   0.18473510  0.68473510  0.68473510
   0.68473510  0.18473510  0.18473510
   0.68473510  0.18473510  0.68473510
   0.68473510  0.68473510  0.18473510
   0.68473510  0.68473510  0.68473510
unknown system                          
            1
     9.362587    0.074836    4.282521
     2.780103    8.940620    4.282521
     0.100795    0.074836   10.295040
   B    C 
    96    16
Direct configuration=     3
   0.16022520  0.40039693  0.40039693
   0.16022520  0.40039693  0.90039693
   0.16022520  0.90039693  0.40039693
   0.16022520  0.90039693  0.90039693
   0.66022520  0.40039693  0.40039693
   0.66022520  0.40039693  0.90039693
   0.66022520  0.90039693  0.40039693
   0.66022520  0.90039693  0.90039693
   0.40039693  0.40039693  0.16022520
   0.40039693  0.40039693  0.66022520
   0.40039693  0.90039693  0.16022520
   0.40039693  0.90039693  0.66022520
   0.90039693  0.40039693  0.16022520
   0.90039693  0.40039693  0.66022520
   0.90039693  0.90039693  0.16022520
   0.90039693  0.90039693  0.66022520
   0.40039693  0.16022520  0.40039693
   0.40039693  0.16022520  0.90039693
   0.40039693  0.66022520  0.40039693
   0.40039693  0.66022520  0.90039693
   0.90039693  0.16022520  0.40039693
   0.90039693  0.16022520  0.90039693
   0.90039693  0.66022520  0.40039693
   0.90039693  0.66022520  0.90039693
   0.33977480  0.09960307  0.09960307
   0.33977480  0.09960307  0.59960307
   0.33977480  0.59960307  0.09960307
   0.33977480  0.59960307  0.59960307
   0.83977480  0.09960307  0.09960307
   0.83977480  0.09960307  0.59960307
   0.83977480  0.59960307  0.09960307
   0.83977480  0.59960307  0.59960307
   0.09960307  0.09960307  0.33977480
   0.09960307  0.09960307  0.83977480
   0.09960307  0.59960307  0.33977480
   0.09960307  0.59960307  0.83977480
   0.59960307  0.09960307  0.33977480
   0.59960307  0.09960307  0.83977480
   0.59960307  0.59960307  0.33977480
   0.59960307  0.59960307  0.83977480
   0.09960307  0.33977480  0.09960307
   0.09960307  0.33977480  0.59960307
   0.09960307  0.83977480  0.09960307
   0.09960307  0.83977480  0.59960307
   0.59960307  0.33977480  0.09960307
   0.59960307  0.33977480  0.59960307
   0.59960307  0.83977480  0.09960307
   0.59960307  0.83977480  0.59960307
   0.33218465  0.00012903  0.00012903
   0.33218465  0.00012903  0.50012903
   0.33218465  0.50012903  0.00012903
   0.33218465  0.50012903  0.50012903
   0.83218465  0.00012903  0.00012903
   0.83218465  0.00012903  0.50012903
   0.83218465  0.50012903  0.00012903
   0.83218465  0.50012903  0.50012903
   0.00012903  0.00012903  0.33218465
   0.00012903  0.00012903  0.83218465
   0.00012903  0.50012903  0.33218465
   0.00012903  0.50012903  0.83218465
   0.50012903  0.00012903  0.33218465
   0.50012903  0.00012903  0.83218465
   0.50012903  0.50012903  0.33218465
   0.50012903  0.50012903  0.83218465
   0.00012903  0.33218465  0.00012903
   0.00012903  0.33218465  0.50012903
   0.00012903  0.83218465  0.00012903
   0.00012903  0.83218465  0.50012903
   0.50012903  0.33218465  0.00012903
   0.50012903  0.33218465  0.50012903
   0.50012903  0.83218465  0.00012903
   0.50012903  0.83218465  0.50012903
   0.16781535  0.99987097  0.99987097
   0.16781535  0.99987097  0.49987097
   0.16781535  0.49987097  0.99987097
   0.16781535  0.49987097  0.49987097
   0.66781535  0.99987097  0.99987097
   0.66781535  0.99987097  0.49987097
   0.66781535  0.49987097  0.99987097
   0.66781535  0.49987097  0.49987097
   0.99987097  0.99987097  0.16781535
   0.99987097  0.99987097  0.66781535
   0.99987097  0.49987097  0.16781535
   0.99987097  0.49987097  0.66781535
   0.49987097  0.99987097  0.16781535
   0.49987097  0.99987097  0.66781535
   0.49987097  0.49987097  0.16781535
   0.49987097  0.49987097  0.66781535
   0.99987097  0.16781535  0.99987097
   0.99987097  0.16781535  0.49987097
   0.99987097  0.66781535  0.99987097
   0.99987097  0.66781535  0.49987097
   0.49987097  0.16781535  0.99987097
   0.49987097  0.16781535  0.49987097
   0.49987097  0.66781535  0.99987097
   0.49987097  0.66781535  0.49987097
   0.31529839  0.31529839  0.31529839
   0.31529839  0.31529839  0.81529839
   0.31529839  0.81529839  0.31529839
   0.31529839  0.81529839  0.81529839
   0.81529839  0.31529839  0.31529839
   0.81529839  0.31529839  0.81529839
   0.81529839  0.81529839  0.31529839
   0.81529839  0.81529839  0.81529839
   0.18470161  0.18470161  0.18470161
   0.18470161  0.18470161  0.68470161
   0.18470161  0.68470161  0.18470161
   0.18470161  0.68470161  0.68470161
   0.68470161  0.18470161  0.18470161
   0.68470161  0.18470161  0.68470161
   0.68470161  0.68470161  0.18470161
   0.68470161  0.68470161  0.68470161
unknown system                          
            1
     9.362863    0.075700    4.283918
     2.781009    8.940634    4.283918
     0.101959    0.075700   10.295860
   B    C 
    96    16
Direct configuration=     4
   0.16017197  0.40035993  0.40035993
   0.16017197  0.40035993  0.90035993
   0.16017197  0.90035993  0.40035993
   0.16017197  0.90035993  0.90035993
   0.66017197  0.40035993  0.40035993
   0.66017197  0.40035993  0.90035993
   0.66017197  0.90035993  0.40035993
   0.66017197  0.90035993  0.90035993
   0.40035993  0.40035993  0.16017197
   0.40035993  0.40035993  0.66017197
   0.40035993  0.90035993  0.16017197
   0.40035993  0.90035993  0.66017197
   0.90035993  0.40035993  0.16017197
   0.90035993  0.40035993  0.66017197
   0.90035993  0.90035993  0.16017197
   0.90035993  0.90035993  0.66017197
   0.40035993  0.16017197  0.40035993
   0.40035993  0.16017197  0.90035993
   0.40035993  0.66017197  0.40035993
   0.40035993  0.66017197  0.90035993
   0.90035993  0.16017197  0.40035993
   0.90035993  0.16017197  0.90035993
   0.90035993  0.66017197  0.40035993
   0.90035993  0.66017197  0.90035993
   0.33982803  0.09964007  0.09964007
   0.33982803  0.09964007  0.59964007
   0.33982803  0.59964007  0.09964007
   0.33982803  0.59964007  0.59964007
   0.83982803  0.09964007  0.09964007
   0.83982803  0.09964007  0.59964007
   0.83982803  0.59964007  0.09964007
   0.83982803  0.59964007  0.59964007
   0.09964007  0.09964007  0.33982803
   0.09964007  0.09964007  0.83982803
   0.09964007  0.59964007  0.33982803
   0.09964007  0.59964007  0.83982803
   0.59964007  0.09964007  0.33982803
   0.59964007  0.09964007  0.83982803
   0.59964007  0.59964007  0.33982803
   0.59964007  0.59964007  0.83982803
   0.09964007  0.33982803  0.09964007
   0.09964007  0.33982803  0.59964007
   0.09964007  0.83982803  0.09964007
   0.09964007  0.83982803  0.59964007
   0.59964007  0.33982803  0.09964007
   0.59964007  0.33982803  0.59964007
   0.59964007  0.83982803  0.09964007
   0.59964007  0.83982803  0.59964007
   0.33215065  0.00013344  0.00013344
   0.33215065  0.00013344  0.50013344
   0.33215065  0.50013344  0.00013344
   0.33215065  0.50013344  0.50013344
   0.83215065  0.00013344  0.00013344
   0.83215065  0.00013344  0.50013344
   0.83215065  0.50013344  0.00013344
   0.83215065  0.50013344  0.50013344
   0.00013344  0.00013344  0.33215065
   0.00013344  0.00013344  0.83215065
   0.00013344  0.50013344  0.33215065
   0.00013344  0.50013344  0.83215065
   0.50013344  0.00013344  0.33215065
   0.50013344  0.00013344  0.83215065
   0.50013344  0.50013344  0.33215065
   0.50013344  0.50013344  0.83215065
   0.00013344  0.33215065  0.00013344
   0.00013344  0.33215065  0.50013344
   0.00013344  0.83215065  0.00013344
   0.00013344  0.83215065  0.50013344
   0.50013344  0.33215065  0.00013344
   0.50013344  0.33215065  0.50013344
   0.50013344  0.83215065  0.00013344
   0.50013344  0.83215065  0.50013344
   0.16784935  0.99986656  0.99986656
   0.16784935  0.99986656  0.49986656
   0.16784935  0.49986656  0.99986656
   0.16784935  0.49986656  0.49986656
   0.66784935  0.99986656  0.99986656
   0.66784935  0.99986656  0.49986656
   0.66784935  0.49986656  0.99986656
   0.66784935  0.49986656  0.49986656
   0.99986656  0.99986656  0.16784935
   0.99986656  0.99986656  0.66784935
   0.99986656  0.49986656  0.16784935
   0.99986656  0.49986656  0.66784935
   0.49986656  0.99986656  0.16784935
   0.49986656  0.99986656  0.66784935
   0.49986656  0.49986656  0.16784935
   0.49986656  0.49986656  0.66784935
   0.99986656  0.16784935  0.99986656
   0.99986656  0.16784935  0.49986656
   0.99986656  0.66784935  0.99986656
   0.99986656  0.66784935  0.49986656
   0.49986656  0.16784935  0.99986656
   0.49986656  0.16784935  0.49986656
   0.49986656  0.66784935  0.99986656
   0.49986656  0.66784935  0.49986656
   0.31526748  0.31526748  0.31526748
   0.31526748  0.31526748  0.81526748
   0.31526748  0.81526748  0.31526748
   0.31526748  0.81526748  0.81526748
   0.81526748  0.31526748  0.31526748
   0.81526748  0.31526748  0.81526748
   0.81526748  0.81526748  0.31526748
   0.81526748  0.81526748  0.81526748
   0.18473252  0.18473252  0.18473252
   0.18473252  0.18473252  0.68473252
   0.18473252  0.68473252  0.18473252
   0.18473252  0.68473252  0.68473252
   0.68473252  0.18473252  0.18473252
   0.68473252  0.18473252  0.68473252
   0.68473252  0.68473252  0.18473252
   0.68473252  0.68473252  0.68473252
unknown system                          
            1
     9.362340    0.074065    4.281274
     2.779293    8.940607    4.281274
     0.099756    0.074065   10.294307
   B    C 
    96    16
Direct configuration=     5
   0.16003909  0.40035548  0.40035548
   0.16003909  0.40035548  0.90035548
   0.16003909  0.90035548  0.40035548
   0.16003909  0.90035548  0.90035548
   0.66003909  0.40035548  0.40035548
   0.66003909  0.40035548  0.90035548
   0.66003909  0.90035548  0.40035548
   0.66003909  0.90035548  0.90035548
   0.40035548  0.40035548  0.16003909
   0.40035548  0.40035548  0.66003909
   0.40035548  0.90035548  0.16003909
   0.40035548  0.90035548  0.66003909
   0.90035548  0.40035548  0.16003909
   0.90035548  0.40035548  0.66003909
   0.90035548  0.90035548  0.16003909
   0.90035548  0.90035548  0.66003909
   0.40035548  0.16003909  0.40035548
   0.40035548  0.16003909  0.90035548
   0.40035548  0.66003909  0.40035548
   0.40035548  0.66003909  0.90035548
   0.90035548  0.16003909  0.40035548
   0.90035548  0.16003909  0.90035548
   0.90035548  0.66003909  0.40035548
   0.90035548  0.66003909  0.90035548
   0.33996091  0.09964452  0.09964452
   0.33996091  0.09964452  0.59964452
   0.33996091  0.59964452  0.09964452
   0.33996091  0.59964452  0.59964452
   0.83996091  0.09964452  0.09964452
   0.83996091  0.09964452  0.59964452
   0.83996091  0.59964452  0.09964452
   0.83996091  0.59964452  0.59964452
   0.09964452  0.09964452  0.33996091
   0.09964452  0.09964452  0.83996091
   0.09964452  0.59964452  0.33996091
   0.09964452  0.59964452  0.83996091
   0.59964452  0.09964452  0.33996091
   0.59964452  0.09964452  0.83996091
   0.59964452  0.59964452  0.33996091
   0.59964452  0.59964452  0.83996091
   0.09964452  0.33996091  0.09964452
   0.09964452  0.33996091  0.59964452
   0.09964452  0.83996091  0.09964452
   0.09964452  0.83996091  0.59964452
   0.59964452  0.33996091  0.09964452
   0.59964452  0.33996091  0.59964452
   0.59964452  0.83996091  0.09964452
   0.59964452  0.83996091  0.59964452
   0.33215378  0.00021967  0.00021967
   0.33215378  0.00021967  0.50021967
   0.33215378  0.50021967  0.00021967
   0.33215378  0.50021967  0.50021967
   0.83215378  0.00021967  0.00021967
   0.83215378  0.00021967  0.50021967
   0.83215378  0.50021967  0.00021967
   0.83215378  0.50021967  0.50021967
   0.00021967  0.00021967  0.33215378
   0.00021967  0.00021967  0.83215378
   0.00021967  0.50021967  0.33215378
   0.00021967  0.50021967  0.83215378
   0.50021967  0.00021967  0.33215378
   0.50021967  0.00021967  0.83215378
   0.50021967  0.50021967  0.33215378
   0.50021967  0.50021967  0.83215378
   0.00021967  0.33215378  0.00021967
   0.00021967  0.33215378  0.50021967
   0.00021967  0.83215378  0.00021967
   0.00021967  0.83215378  0.50021967
   0.50021967  0.33215378  0.00021967
   0.50021967  0.33215378  0.50021967
   0.50021967  0.83215378  0.00021967
   0.50021967  0.83215378  0.50021967
   0.16784622  0.99978033  0.99978033
   0.16784622  0.99978033  0.49978033
   0.16784622  0.49978033  0.99978033
   0.16784622  0.49978033  0.49978033
   0.66784622  0.99978033  0.99978033
   0.66784622  0.99978033  0.49978033
   0.66784622  0.49978033  0.99978033
   0.66784622  0.49978033  0.49978033
   0.99978033  0.99978033  0.16784622
   0.99978033  0.99978033  0.66784622
   0.99978033  0.49978033  0.16784622
   0.99978033  0.49978033  0.66784622
   0.49978033  0.99978033  0.16784622
   0.49978033  0.99978033  0.66784622
   0.49978033  0.49978033  0.16784622
   0.49978033  0.49978033  0.66784622
   0.99978033  0.16784622  0.99978033
   0.99978033  0.16784622  0.49978033
   0.99978033  0.66784622  0.99978033
   0.99978033  0.66784622  0.49978033
   0.49978033  0.16784622  0.99978033
   0.49978033  0.16784622  0.49978033
   0.49978033  0.66784622  0.99978033
   0.49978033  0.66784622  0.49978033
   0.31509565  0.31509565  0.31509565
   0.31509565  0.31509565  0.81509565
   0.31509565  0.81509565  0.31509565
   0.31509565  0.81509565  0.81509565
   0.81509565  0.31509565  0.31509565
   0.81509565  0.31509565  0.81509565
   0.81509565  0.81509565  0.31509565
   0.81509565  0.81509565  0.81509565
   0.18490435  0.18490435  0.18490435
   0.18490435  0.18490435  0.68490435
   0.18490435  0.68490435  0.18490435
   0.18490435  0.68490435  0.68490435
   0.68490435  0.18490435  0.18490435
   0.68490435  0.18490435  0.68490435
   0.68490435  0.68490435  0.18490435
   0.68490435  0.68490435  0.68490435
unknown system                          
            1
     9.362444    0.074389    4.281798
     2.779633    8.940613    4.281798
     0.100192    0.074389   10.294614
   B    C 
    96    16
Direct configuration=     6
   0.16006541  0.40035637  0.40035637
   0.16006541  0.40035637  0.90035637
   0.16006541  0.90035637  0.40035637
   0.16006541  0.90035637  0.90035637
   0.66006541  0.40035637  0.40035637
   0.66006541  0.40035637  0.90035637
   0.66006541  0.90035637  0.40035637
   0.66006541  0.90035637  0.90035637
   0.40035637  0.40035637  0.16006541
   0.40035637  0.40035637  0.66006541
   0.40035637  0.90035637  0.16006541
   0.40035637  0.90035637  0.66006541
   0.90035637  0.40035637  0.16006541
   0.90035637  0.40035637  0.66006541
   0.90035637  0.90035637  0.16006541
   0.90035637  0.90035637  0.66006541
   0.40035637  0.16006541  0.40035637
   0.40035637  0.16006541  0.90035637
   0.40035637  0.66006541  0.40035637
   0.40035637  0.66006541  0.90035637
   0.90035637  0.16006541  0.40035637
   0.90035637  0.16006541  0.90035637
   0.90035637  0.66006541  0.40035637
   0.90035637  0.66006541  0.90035637
   0.33993459  0.09964363  0.09964363
   0.33993459  0.09964363  0.59964363
   0.33993459  0.59964363  0.09964363
   0.33993459  0.59964363  0.59964363
   0.83993459  0.09964363  0.09964363
   0.83993459  0.09964363  0.59964363
   0.83993459  0.59964363  0.09964363
   0.83993459  0.59964363  0.59964363
   0.09964363  0.09964363  0.33993459
   0.09964363  0.09964363  0.83993459
   0.09964363  0.59964363  0.33993459
   0.09964363  0.59964363  0.83993459
   0.59964363  0.09964363  0.33993459
   0.59964363  0.09964363  0.83993459
   0.59964363  0.59964363  0.33993459
   0.59964363  0.59964363  0.83993459
   0.09964363  0.33993459  0.09964363
   0.09964363  0.33993459  0.59964363
   0.09964363  0.83993459  0.09964363
   0.09964363  0.83993459  0.59964363
   0.59964363  0.33993459  0.09964363
   0.59964363  0.33993459  0.59964363
   0.59964363  0.83993459  0.09964363
   0.59964363  0.83993459  0.59964363
   0.33215315  0.00020259  0.00020259
   0.33215315  0.00020259  0.50020259
   0.33215315  0.50020259  0.00020259
   0.33215315  0.50020259  0.50020259
   0.83215315  0.00020259  0.00020259
   0.83215315  0.00020259  0.50020259
   0.83215315  0.50020259  0.00020259
   0.83215315  0.50020259  0.50020259
   0.00020259  0.00020259  0.33215315
   0.00020259  0.00020259  0.83215315
   0.00020259  0.50020259  0.33215315
   0.00020259  0.50020259  0.83215315
   0.50020259  0.00020259  0.33215315
   0.50020259  0.00020259  0.83215315
   0.50020259  0.50020259  0.33215315
   0.50020259  0.50020259  0.83215315
   0.00020259  0.33215315  0.00020259
   0.00020259  0.33215315  0.50020259
   0.00020259  0.83215315  0.00020259
   0.00020259  0.83215315  0.50020259
   0.50020259  0.33215315  0.00020259
   0.50020259  0.33215315  0.50020259
   0.50020259  0.83215315  0.00020259
   0.50020259  0.83215315  0.50020259
   0.16784685  0.99979741  0.99979741
   0.16784685  0.99979741  0.49979741
   0.16784685  0.49979741  0.99979741
   0.16784685  0.49979741  0.49979741
   0.66784685  0.99979741  0.99979741
   0.66784685  0.99979741  0.49979741
   0.66784685  0.49979741  0.99979741
   0.66784685  0.49979741  0.49979741
   0.99979741  0.99979741  0.16784685
   0.99979741  0.99979741  0.66784685
   0.99979741  0.49979741  0.16784685
   0.99979741  0.49979741  0.66784685
   0.49979741  0.99979741  0.16784685
   0.49979741  0.99979741  0.66784685
   0.49979741  0.49979741  0.16784685
   0.49979741  0.49979741  0.66784685
   0.99979741  0.16784685  0.99979741
   0.99979741  0.16784685  0.49979741
   0.99979741  0.66784685  0.99979741
   0.99979741  0.66784685  0.49979741
   0.49979741  0.16784685  0.99979741
   0.49979741  0.16784685  0.49979741
   0.49979741  0.66784685  0.99979741
   0.49979741  0.66784685  0.49979741
   0.31512969  0.31512969  0.31512969
   0.31512969  0.31512969  0.81512969
   0.31512969  0.81512969  0.31512969
   0.31512969  0.81512969  0.81512969
   0.81512969  0.31512969  0.31512969
   0.81512969  0.31512969  0.81512969
   0.81512969  0.81512969  0.31512969
   0.81512969  0.81512969  0.81512969
   0.18487031  0.18487031  0.18487031
   0.18487031  0.18487031  0.68487031
   0.18487031  0.68487031  0.18487031
   0.18487031  0.68487031  0.68487031
   0.68487031  0.18487031  0.18487031
   0.68487031  0.18487031  0.68487031
   0.68487031  0.68487031  0.18487031
   0.68487031  0.68487031  0.68487031
unknown system                          
            1
     9.362396    0.074238    4.281554
     2.779475    8.940610    4.281554
     0.099989    0.074238   10.294471
   B    C 
    96    16
Direct configuration=     7
   0.16005318  0.40035595  0.40035595
   0.16005318  0.40035595  0.90035595
   0.16005318  0.90035595  0.40035595
   0.16005318  0.90035595  0.90035595
   0.66005318  0.40035595  0.40035595
   0.66005318  0.40035595  0.90035595
   0.66005318  0.90035595  0.40035595
   0.66005318  0.90035595  0.90035595
   0.40035595  0.40035595  0.16005318
   0.40035595  0.40035595  0.66005318
   0.40035595  0.90035595  0.16005318
   0.40035595  0.90035595  0.66005318
   0.90035595  0.40035595  0.16005318
   0.90035595  0.40035595  0.66005318
   0.90035595  0.90035595  0.16005318
   0.90035595  0.90035595  0.66005318
   0.40035595  0.16005318  0.40035595
   0.40035595  0.16005318  0.90035595
   0.40035595  0.66005318  0.40035595
   0.40035595  0.66005318  0.90035595
   0.90035595  0.16005318  0.40035595
   0.90035595  0.16005318  0.90035595
   0.90035595  0.66005318  0.40035595
   0.90035595  0.66005318  0.90035595
   0.33994682  0.09964405  0.09964405
   0.33994682  0.09964405  0.59964405
   0.33994682  0.59964405  0.09964405
   0.33994682  0.59964405  0.59964405
   0.83994682  0.09964405  0.09964405
   0.83994682  0.09964405  0.59964405
   0.83994682  0.59964405  0.09964405
   0.83994682  0.59964405  0.59964405
   0.09964405  0.09964405  0.33994682
   0.09964405  0.09964405  0.83994682
   0.09964405  0.59964405  0.33994682
   0.09964405  0.59964405  0.83994682
   0.59964405  0.09964405  0.33994682
   0.59964405  0.09964405  0.83994682
   0.59964405  0.59964405  0.33994682
   0.59964405  0.59964405  0.83994682
   0.09964405  0.33994682  0.09964405
   0.09964405  0.33994682  0.59964405
   0.09964405  0.83994682  0.09964405
   0.09964405  0.83994682  0.59964405
   0.59964405  0.33994682  0.09964405
   0.59964405  0.33994682  0.59964405
   0.59964405  0.83994682  0.09964405
   0.59964405  0.83994682  0.59964405
   0.33215344  0.00021053  0.00021053
   0.33215344  0.00021053  0.50021053
   0.33215344  0.50021053  0.00021053
   0.33215344  0.50021053  0.50021053
   0.83215344  0.00021053  0.00021053
   0.83215344  0.00021053  0.50021053
   0.83215344  0.50021053  0.00021053
   0.83215344  0.50021053  0.50021053
   0.00021053  0.00021053  0.33215344
   0.00021053  0.00021053  0.83215344
   0.00021053  0.50021053  0.33215344
   0.00021053  0.50021053  0.83215344
   0.50021053  0.00021053  0.33215344
   0.50021053  0.00021053  0.83215344
   0.50021053  0.50021053  0.33215344
   0.50021053  0.50021053  0.83215344
   0.00021053  0.33215344  0.00021053
   0.00021053  0.33215344  0.50021053
   0.00021053  0.83215344  0.00021053
   0.00021053  0.83215344  0.50021053
   0.50021053  0.33215344  0.00021053
   0.50021053  0.33215344  0.50021053
   0.50021053  0.83215344  0.00021053