 120 120   0   0
  0.7351869E+01  0.1022918E-08  0.1041532E-08  0.1040844E-08  0.5000000E-15
   1.0000000000000000E-004
  CAR 
 unknown system                          
     13.77703826    -12.17568755  301      7.88452359      1.00000000
    -12.176  0.0000E+00  0.0000E+00
    -12.089  0.0000E+00  0.0000E+00
    -12.003  0.0000E+00  0.0000E+00
    -11.916  0.0000E+00  0.0000E+00
    -11.830  0.0000E+00  0.0000E+00
    -11.743  0.0000E+00  0.0000E+00
    -11.657  0.0000E+00  0.0000E+00
    -11.570  0.0000E+00  0.0000E+00
    -11.484  0.0000E+00  0.0000E+00
    -11.397  0.0000E+00  0.0000E+00
    -11.311  0.0000E+00  0.0000E+00
    -11.224  0.0000E+00  0.0000E+00
    -11.138  0.0000E+00  0.0000E+00
    -11.051  0.0000E+00  0.0000E+00
    -10.965  0.5452E-03  0.5717E-05
    -10.878  0.7667E-02  0.3015E-03
    -10.792  0.2303E-01  0.1570E-02
    -10.705  0.1197E+00  0.8808E-02
    -10.619  0.1372E-01  0.1249E-01
    -10.532  0.3838E-02  0.1321E-01
    -10.446  0.9551E-01  0.1430E-01
    -10.359  0.1764E+00  0.3197E-01
    -10.272  0.1266E+00  0.4289E-01
    -10.186  0.1785E-01  0.5317E-01
    -10.099  0.0000E+00  0.5333E-01
    -10.013  0.0000E+00  0.5333E-01
     -9.926  0.0000E+00  0.5333E-01
     -9.840  0.0000E+00  0.5333E-01
     -9.753  0.0000E+00  0.5333E-01
     -9.667  0.0000E+00  0.5333E-01
     -9.580  0.0000E+00  0.5333E-01
     -9.494  0.0000E+00  0.5333E-01
     -9.407  0.0000E+00  0.5333E-01
     -9.321  0.0000E+00  0.5333E-01
     -9.234  0.0000E+00  0.5333E-01
     -9.148  0.0000E+00  0.5333E-01
     -9.061  0.0000E+00  0.5333E-01
     -8.975  0.2198E-02  0.5338E-01
     -8.888  0.1749E-01  0.5412E-01
     -8.802  0.4936E-01  0.5689E-01
     -8.715  0.1633E+00  0.6575E-01
     -8.629  0.9832E-01  0.7521E-01
     -8.542  0.4276E-01  0.8128E-01
     -8.456  0.8694E-01  0.8541E-01
     -8.369  0.5635E-01  0.9369E-01
     -8.283  0.7966E-01  0.1012E+00
     -8.196  0.2790E-01  0.1058E+00
     -8.110  0.1062E-02  0.1067E+00
     -8.023  0.3972E-01  0.1080E+00
     -7.937  0.6885E-01  0.1132E+00
     -7.850  0.3511E-01  0.1181E+00
     -7.764  0.3078E-01  0.1206E+00
     -7.677  0.1433E+00  0.1268E+00
     -7.591  0.8425E-01  0.1395E+00
     -7.504  0.3396E-01  0.1444E+00
     -7.418  0.1068E-01  0.1461E+00
     -7.331  0.3429E-01  0.1474E+00
     -7.245  0.1120E+00  0.1538E+00
     -7.158  0.1189E-01  0.1608E+00
     -7.072  0.2304E-01  0.1623E+00
     -6.985  0.4221E-01  0.1649E+00
     -6.899  0.5377E-01  0.1690E+00
     -6.812  0.9374E-01  0.1758E+00
     -6.726  0.7412E-01  0.1831E+00
     -6.639  0.1079E-01  0.1864E+00
     -6.553  0.3823E-01  0.1889E+00
     -6.466  0.4746E-01  0.1926E+00
     -6.380  0.5946E-01  0.1972E+00
     -6.293  0.6837E-01  0.2028E+00
     -6.207  0.4842E-01  0.2081E+00
     -6.120  0.3305E-01  0.2115E+00
     -6.034  0.5338E-02  0.2133E+00
     -5.947  0.0000E+00  0.2133E+00
     -5.861  0.2506E-01  0.2140E+00
     -5.774  0.9899E-01  0.2192E+00
     -5.688  0.4998E-01  0.2257E+00
     -5.601  0.3635E-01  0.2290E+00
     -5.514  0.1004E+00  0.2346E+00
     -5.428  0.1738E+00  0.2485E+00
     -5.341  0.3295E-01  0.2535E+00
     -5.255  0.7662E-01  0.2587E+00
     -5.168  0.1201E+00  0.2672E+00
     -5.082  0.8328E-01  0.2772E+00
     -4.995  0.4214E-01  0.2814E+00
     -4.909  0.9005E-01  0.2902E+00
     -4.822  0.3540E-01  0.2936E+00
     -4.736  0.5245E-01  0.2976E+00
     -4.649  0.5427E-01  0.3021E+00
     -4.563  0.7516E-01  0.3076E+00
     -4.476  0.5821E-01  0.3142E+00
     -4.390  0.2382E-01  0.3171E+00
     -4.303  0.1365E-01  0.3186E+00
     -4.217  0.6922E-02  0.3195E+00
     -4.130  0.2459E-02  0.3199E+00
     -4.044  0.2552E-03  0.3200E+00
     -3.957  0.0000E+00  0.3200E+00
     -3.871  0.1589E-06  0.3200E+00
     -3.784  0.1549E-01  0.3203E+00
     -3.698  0.2424E-01  0.3221E+00
     -3.611  0.3670E-01  0.3247E+00
     -3.525  0.4245E-01  0.3283E+00
     -3.438  0.4380E-01  0.3320E+00
     -3.352  0.4892E-01  0.3359E+00
     -3.265  0.5795E-01  0.3405E+00
     -3.179  0.7111E-01  0.3461E+00
     -3.092  0.9016E-01  0.3535E+00
     -3.006  0.7765E-01  0.3598E+00
     -2.919  0.4019E-01  0.3649E+00
     -2.833  0.1013E+00  0.3711E+00
     -2.746  0.8860E-01  0.3782E+00
     -2.660  0.7017E-01  0.3858E+00
     -2.573  0.7239E-01  0.3910E+00
     -2.487  0.7630E-01  0.3987E+00
     -2.400  0.4503E-01  0.4026E+00
     -2.314  0.8926E-01  0.4107E+00
     -2.227  0.7804E-01  0.4174E+00
     -2.141  0.1100E+00  0.4274E+00
     -2.054  0.9660E-01  0.4363E+00
     -1.968  0.8665E-01  0.4438E+00
     -1.881  0.1468E+00  0.4537E+00
     -1.795  0.1680E+00  0.4679E+00
     -1.708  0.1200E+00  0.4805E+00
     -1.622  0.8619E-01  0.4888E+00
     -1.535  0.8242E-01  0.4961E+00
     -1.449  0.5545E-01  0.5024E+00
     -1.362  0.2258E-01  0.5057E+00
     -1.276  0.1764E+00  0.5140E+00
     -1.189  0.1384E+00  0.5235E+00
     -1.103  0.1612E+00  0.5385E+00
     -1.016  0.1008E+00  0.5495E+00
     -0.930  0.6723E-01  0.5560E+00
     -0.843  0.8841E-01  0.5626E+00
     -0.756  0.1667E+00  0.5749E+00
     -0.670  0.8551E-01  0.5850E+00
     -0.583  0.7992E-01  0.5921E+00
     -0.497  0.8740E-01  0.5993E+00
     -0.410  0.9152E-01  0.6072E+00
     -0.324  0.7014E-01  0.6143E+00
     -0.237  0.1197E+00  0.6203E+00
     -0.151  0.2740E-01  0.6274E+00
     -0.064  0.1669E+00  0.6345E+00
      0.022  0.2307E+00  0.6542E+00
      0.109  0.7168E-01  0.6663E+00
      0.195  0.9757E-01  0.6727E+00
      0.282  0.1032E+00  0.6836E+00
      0.368  0.1102E+00  0.6911E+00
      0.455  0.1099E+00  0.7010E+00
      0.541  0.7380E-01  0.7095E+00
      0.628  0.8264E-01  0.7162E+00
      0.714  0.9701E-01  0.7240E+00
      0.801  0.1262E+00  0.7334E+00
      0.887  0.1684E+00  0.7480E+00
      0.974  0.1528E+00  0.7612E+00
      1.060  0.1558E+00  0.7744E+00
      1.147  0.9392E-01  0.7867E+00
      1.233  0.5833E-01  0.7923E+00
      1.320  0.1281E+00  0.8004E+00
      1.406  0.1104E+00  0.8102E+00
      1.493  0.1528E+00  0.8209E+00
      1.579  0.1476E+00  0.8363E+00
      1.666  0.8032E-01  0.8456E+00
      1.752  0.1101E+00  0.8539E+00
      1.839  0.2101E+00  0.8699E+00
      1.925  0.1966E+00  0.8887E+00
      2.012  0.1123E+00  0.9002E+00
      2.098  0.1493E+00  0.9135E+00
      2.185  0.9460E-01  0.9207E+00
      2.271  0.8097E-01  0.9332E+00
      2.358  0.2507E+00  0.9512E+00
      2.444  0.1403E+00  0.9648E+00
      2.531  0.1773E+00  0.9782E+00
      2.617  0.1631E+00  0.9910E+00
      2.704  0.1344E+00  0.1006E+01
      2.790  0.1415E+00  0.1014E+01
      2.877  0.2132E+00  0.1029E+01
      2.963  0.1540E+00  0.1048E+01
      3.050  0.2047E+00  0.1060E+01
      3.136  0.1752E+00  0.1077E+01
      3.223  0.1307E+00  0.1088E+01
      3.309  0.9700E-01  0.1098E+01
      3.396  0.1061E+00  0.1107E+01
      3.482  0.1334E+00  0.1116E+01
      3.569  0.1858E+00  0.1132E+01
      3.655  0.2021E+00  0.1149E+01
      3.742  0.1363E+00  0.1162E+01
      3.828  0.8467E-01  0.1170E+01
      3.915  0.2283E+00  0.1185E+01
      4.002  0.2453E+00  0.1210E+01
      4.088  0.9556E-01  0.1218E+01
      4.175  0.1054E+00  0.1226E+01
      4.261  0.1365E+00  0.1237E+01
      4.348  0.1372E+00  0.1250E+01
      4.434  0.1054E+00  0.1261E+01
      4.521  0.8792E-01  0.1269E+01
      4.607  0.5342E-01  0.1275E+01
      4.694  0.2356E-01  0.1278E+01
      4.780  0.7078E-02  0.1280E+01
      4.867  0.1826E-02  0.1280E+01
      4.953  0.1145E-03  0.1280E+01
      5.040  0.0000E+00  0.1280E+01
      5.126  0.0000E+00  0.1280E+01
      5.213  0.0000E+00  0.1280E+01
      5.299  0.0000E+00  0.1280E+01
      5.386  0.0000E+00  0.1280E+01
      5.472  0.0000E+00  0.1280E+01
      5.559  0.0000E+00  0.1280E+01
      5.645  0.0000E+00  0.1280E+01
      5.732  0.0000E+00  0.1280E+01
      5.818  0.0000E+00  0.1280E+01
      5.905  0.0000E+00  0.1280E+01
      5.991  0.0000E+00  0.1280E+01
      6.078  0.0000E+00  0.1280E+01
      6.164  0.0000E+00  0.1280E+01
      6.251  0.0000E+00  0.1280E+01
      6.337  0.0000E+00  0.1280E+01
      6.424  0.0000E+00  0.1280E+01
      6.510  0.0000E+00  0.1280E+01
      6.597  0.0000E+00  0.1280E+01
      6.683  0.0000E+00  0.1280E+01
      6.770  0.0000E+00  0.1280E+01
      6.856  0.0000E+00  0.1280E+01
      6.943  0.0000E+00  0.1280E+01
      7.029  0.0000E+00  0.1280E+01
      7.116  0.0000E+00  0.1280E+01
      7.202  0.0000E+00  0.1280E+01
      7.289  0.0000E+00  0.1280E+01
      7.375  0.0000E+00  0.1280E+01
      7.462  0.0000E+00  0.1280E+01
      7.548  0.0000E+00  0.1280E+01
      7.635  0.0000E+00  0.1280E+01
      7.721  0.0000E+00  0.1280E+01
      7.808  0.0000E+00  0.1280E+01
      7.894  0.1986E-04  0.1280E+01
      7.981  0.3975E-02  0.1280E+01
      8.067  0.1841E-01  0.1281E+01
      8.154  0.5181E-01  0.1284E+01
      8.240  0.1124E+00  0.1292E+01
      8.327  0.1296E+00  0.1299E+01
      8.413  0.8791E-01  0.1310E+01
      8.500  0.7103E-01  0.1317E+01
      8.586  0.6384E-01  0.1323E+01
      8.673  0.7861E-01  0.1328E+01
      8.760  0.1029E+00  0.1337E+01
      8.846  0.1082E+00  0.1345E+01
      8.933  0.9566E-01  0.1354E+01
      9.019  0.1016E+00  0.1363E+01
      9.106  0.8910E-01  0.1371E+01
      9.192  0.1053E+00  0.1379E+01
      9.279  0.9927E-01  0.1388E+01
      9.365  0.1004E+00  0.1397E+01
      9.452  0.1497E+00  0.1408E+01
      9.538  0.8649E-01  0.1420E+01
      9.625  0.1093E+00  0.1425E+01
      9.711  0.1140E+00  0.1439E+01
      9.798  0.1077E+00  0.1448E+01
      9.884  0.5138E-01  0.1455E+01
      9.971  0.9446E-01  0.1462E+01
     10.057  0.1168E+00  0.1471E+01
     10.144  0.8254E-01  0.1479E+01
     10.230  0.1142E+00  0.1487E+01
     10.317  0.9974E-01  0.1498E+01
     10.403  0.5675E-01  0.1504E+01
     10.490  0.6008E-01  0.1509E+01
     10.576  0.7892E-01  0.1515E+01
     10.663  0.9210E-01  0.1523E+01
     10.749  0.7191E-01  0.1530E+01
     10.836  0.7412E-01  0.1536E+01
     10.922  0.8609E-01  0.1542E+01
     11.009  0.9476E-01  0.1550E+01
     11.095  0.9379E-01  0.1559E+01
     11.182  0.8551E-01  0.1566E+01
     11.268  0.7142E-01  0.1573E+01
     11.355  0.6837E-01  0.1579E+01
     11.441  0.7764E-01  0.1585E+01
     11.528  0.9274E-01  0.1593E+01
     11.614  0.9183E-01  0.1601E+01
     11.701  0.7416E-01  0.1608E+01
     11.787  0.5824E-01  0.1614E+01
     11.874  0.8445E-01  0.1619E+01
     11.960  0.1981E+00  0.1628E+01
     12.047  0.1501E+00  0.1642E+01
     12.133  0.4492E-01  0.1650E+01
     12.220  0.5842E-01  0.1654E+01
     12.306  0.1787E+00  0.1665E+01
     12.393  0.9857E-01  0.1674E+01
     12.479  0.1284E-01  0.1680E+01
     12.566  0.1196E+00  0.1685E+01
     12.652  0.0000E+00  0.1687E+01
     12.739  0.0000E+00  0.1687E+01
     12.825  0.0000E+00  0.1687E+01
     12.912  0.0000E+00  0.1687E+01
     12.998  0.0000E+00  0.1687E+01
     13.085  0.0000E+00  0.1687E+01
     13.171  0.0000E+00  0.1687E+01
     13.258  0.0000E+00  0.1687E+01
     13.344  0.0000E+00  0.1687E+01
     13.431  0.0000E+00  0.1687E+01
     13.518  0.0000E+00  0.1687E+01
     13.604  0.0000E+00  0.1687E+01
     13.691  0.0000E+00  0.1687E+01
     13.777  0.0000E+00  0.1687E+01
