 vasp.6.2.0 18Jan21 (build Feb 25 2021 07:51:20) complex                         
 executed on             LinuxPGI date 2022.05.17  13:24:10
 running on    1 total cores
 distrk:  each k-point on    1 cores,    1 groups
 distr:  one band on NCORE=   1 cores,    1 groups


--------------------------------------------------------------------------------------------------------


 INCAR:
   ALGO = Fast
   PREC = Accurate
   EDIFF = 1E-6
   ENCUT = 700
   ISMEAR = -5
   IBRION = 2
   ISIF = 4
   LREAL = Auto
   LWAVE = False
   LCHARGE = False
   NSW = 300
   SIGMA = 0.05

 POTCAR:    PAW_PBE B 06Sep2000                   
 POTCAR:    PAW_PBE C 08Apr2002                   
 POTCAR:    PAW_PBE B 06Sep2000                   
   VRHFIN =B: s2p1                                                                                  
   LEXCH  = PE                                                                                      
   EATOM  =    71.1703 eV,    5.2309 Ry                                                             
                                                                                                    
   TITEL  = PAW_PBE B 06Sep2000                                                                     
   LULTRA =        F    use ultrasoft PP ?                                                          
   IUNSCR =        1    unscreen: 0-lin 1-nonlin 2-no                                               
   RPACOR =    1.200    partial core radius                                                         
   POMASS =   10.811; ZVAL   =    3.000    mass and valenz                                          
   RCORE  =    1.700    outmost cutoff radius                                                       
   RWIGS  =    1.710; RWIGS  =    0.905    wigner-seitz radius (au A)                               
   ENMAX  =  318.614; ENMIN  =  238.960 eV                                                          
   ICORE  =        2    local potential                                                             
   LCOR   =        T    correct aug charges                                                         
   LPAW   =        T    paw PP                                                                      
   EAUG   =  535.514                                                                                
   DEXC   =    0.000                                                                                
   RMAX   =    1.732    core radius for proj-oper                                                   
   RAUG   =    1.300    factor for augmentation sphere                                              
   RDEP   =    1.757    radius for radial grids                                                     
   RDEPT  =    1.436    core radius for aug-charge                                                  
                                                                                                    
   Atomic configuration                                                                             
    4 entries                                                                                       
     n  l   j            E        occ.                                                              
     1  0  0.50      -180.5896   2.0000                                                             
     2  0  0.50        -9.4431   2.0000                                                             
     2  1  0.50        -3.6068   1.0000                                                             
     3  2  1.50        -4.0817   0.0000                                                             
   Description                                                                                      
     l       E           TYP  RCUT    TYP  RCUT                                                     
     0     -9.4430752     23  1.500                                                                 
     0      0.8675899     23  1.500                                                                 
     1     -3.6067955     23  1.700                                                                 
     1      6.1086146     23  1.700                                                                 
     2     -4.0817478      7  1.700                                                                 
  local pseudopotential read in
  partial core-charges read in
  partial kinetic energy density read in
  atomic valenz-charges read in
  non local Contribution for L=            0  read in
    real space projection operators read in
  non local Contribution for L=            0  read in
    real space projection operators read in
  non local Contribution for L=            1  read in
    real space projection operators read in
  non local Contribution for L=            1  read in
    real space projection operators read in
    PAW grid and wavefunctions read in
 
   number of l-projection  operators is LMAX  =            4
   number of lm-projection operators is LMMAX =            8
 
 POTCAR:    PAW_PBE C 08Apr2002                   
   VRHFIN =C: s2p2                                                                                  
   LEXCH  = PE                                                                                      
   EATOM  =   147.1560 eV,   10.8157 Ry                                                             
                                                                                                    
   TITEL  = PAW_PBE C 08Apr2002                                                                     
   LULTRA =        F    use ultrasoft PP ?                                                          
   IUNSCR =        1    unscreen: 0-lin 1-nonlin 2-no                                               
   RPACOR =    1.200    partial core radius                                                         
   POMASS =   12.011; ZVAL   =    4.000    mass and valenz                                          
   RCORE  =    1.500    outmost cutoff radius                                                       
   RWIGS  =    1.630; RWIGS  =    0.863    wigner-seitz radius (au A)                               
   ENMAX  =  400.000; ENMIN  =  300.000 eV                                                          
   ICORE  =        2    local potential                                                             
   LCOR   =        T    correct aug charges                                                         
   LPAW   =        T    paw PP                                                                      
   EAUG   =  644.873                                                                                
   DEXC   =    0.000                                                                                
   RMAX   =    1.529    core radius for proj-oper                                                   
   RAUG   =    1.300    factor for augmentation sphere                                              
   RDEP   =    1.501    radius for radial grids                                                     
   RDEPT  =    1.300    core radius for aug-charge                                                  
                                                                                                    
   Atomic configuration                                                                             
    4 entries                                                                                       
     n  l   j            E        occ.                                                              
     1  0  0.50      -273.3789   2.0000                                                             
     2  0  0.50       -13.7508   2.0000                                                             
     2  1  0.50        -5.2854   2.0000                                                             
     3  2  1.50        -5.4423   0.0000                                                             
   Description                                                                                      
     l       E           TYP  RCUT    TYP  RCUT                                                     
     0    -13.7508458     23  1.200                                                                 
     0     -8.2022199     23  1.200                                                                 
     1     -5.2854383     23  1.500                                                                 
     1     34.0145650     23  1.500                                                                 
     2     -5.4423304      7  1.500                                                                 
  local pseudopotential read in
  partial core-charges read in
  partial kinetic energy density read in
  atomic valenz-charges read in
  non local Contribution for L=            0  read in
    real space projection operators read in
  non local Contribution for L=            0  read in
    real space projection operators read in
  non local Contribution for L=            1  read in
    real space projection operators read in
  non local Contribution for L=            1  read in
    real space projection operators read in
    PAW grid and wavefunctions read in
 
   number of l-projection  operators is LMAX  =            4
   number of lm-projection operators is LMMAX =            8
 
 Optimization of the real space projectors (new method)

 maximal supplied QI-value         = 22.11
 optimisation between [QCUT,QGAM] = [ 13.49, 26.97] = [ 50.94,203.75] Ry 
 Optimized for a Real-space Cutoff    1.14 Angstroem

   l    n(q)    QCUT    max X(q) W(low)/X(q) W(high)/X(q)  e(spline) 
   0      9    13.487    53.033    0.17E-03    0.11E-03    0.20E-06
   0      9    13.487    34.740    0.17E-03    0.11E-03    0.20E-06
   1      9    13.487    30.949    0.61E-04    0.25E-04    0.11E-06
   1      9    13.487    19.518    0.55E-04    0.23E-04    0.10E-06
 Optimization of the real space projectors (new method)

 maximal supplied QI-value         = 25.13
 optimisation between [QCUT,QGAM] = [ 13.32, 26.89] = [ 49.69,202.52] Ry 
 Optimized for a Real-space Cutoff    1.07 Angstroem

   l    n(q)    QCUT    max X(q) W(low)/X(q) W(high)/X(q)  e(spline) 
   0      9    13.321   115.676    0.24E-03    0.18E-03    0.16E-06
   0      9    13.321    87.132    0.24E-03    0.18E-03    0.16E-06
   1      8    13.321     4.429    0.20E-03    0.27E-03    0.12E-06
   1      8    13.321     2.733    0.16E-03    0.21E-03    0.12E-06
  PAW_PBE B 06Sep2000                   :
 energy of atom  1       EATOM=  -71.1703
 kinetic energy error for atom=    0.0004 (will be added to EATOM!!)
  PAW_PBE C 08Apr2002                   :
 energy of atom  2       EATOM= -147.1560
 kinetic energy error for atom=    0.0032 (will be added to EATOM!!)
 
 
 POSCAR: B96 C24
  positions in direct lattice
  No initial velocities read in
 exchange correlation table for  LEXCH =        8
   RHO(1)=    0.500       N(1)  =     2000
   RHO(2)=  100.500       N(2)  =     4000
 


--------------------------------------------------------------------------------------------------------


 ion  position               nearest neighbor table
   1  0.158  0.404  0.404- 105 1.61  35 1.75  42 1.75  68 1.81  53 1.81  61 1.82
   2  0.158  0.404  0.904- 106 1.61  36 1.75  41 1.75  67 1.81  54 1.81  62 1.82
   3  0.158  0.904  0.404- 107 1.61  33 1.75  44 1.75  66 1.81  55 1.81  63 1.82
   4  0.158  0.904  0.904- 108 1.61  34 1.75  43 1.75  65 1.81  56 1.81  64 1.82
   5  0.658  0.404  0.404- 109 1.61  39 1.75  46 1.75  72 1.81  49 1.81  57 1.82
   6  0.658  0.404  0.904- 110 1.61  40 1.75  45 1.75  71 1.81  50 1.81  58 1.82
   7  0.658  0.904  0.404- 111 1.61  37 1.75  48 1.75  70 1.81  51 1.81  59 1.82
   8  0.658  0.904  0.904- 112 1.61  38 1.75  47 1.75  69 1.81  52 1.81  60 1.82
   9  0.402  0.402  0.157- 105 1.63  27 1.76  45 1.77  98 1.77  79 1.79  58 1.81
  10  0.402  0.402  0.657- 106 1.63  28 1.76  46 1.77  97 1.77  80 1.79  57 1.81
  11  0.402  0.902  0.157- 107 1.63  25 1.76  47 1.77 100 1.77  77 1.79  60 1.81
  12  0.402  0.902  0.657- 108 1.63  26 1.76  48 1.77  99 1.77  78 1.79  59 1.81
  13  0.902  0.402  0.157- 109 1.63  31 1.76  41 1.77 102 1.77  75 1.79  62 1.81
  14  0.902  0.402  0.657- 110 1.63  32 1.76  42 1.77 101 1.77  76 1.79  61 1.81
  15  0.902  0.902  0.157- 111 1.63  29 1.76  43 1.77 104 1.77  73 1.79  64 1.81
  16  0.902  0.902  0.657- 112 1.63  30 1.76  44 1.77 103 1.77  74 1.79  63 1.81
  17  0.402  0.157  0.402- 105 1.62  26 1.76  37 1.77  99 1.77  86 1.79  51 1.81
  18  0.402  0.157  0.902- 106 1.62  25 1.76  38 1.77 100 1.77  85 1.79  52 1.81
  19  0.402  0.657  0.402- 107 1.62  28 1.76  39 1.77  97 1.77  88 1.79  49 1.81
  20  0.402  0.657  0.902- 108 1.62  27 1.76  40 1.77  98 1.77  87 1.79  50 1.81
  21  0.902  0.157  0.402- 109 1.62  30 1.76  33 1.77 103 1.77  82 1.79  55 1.81
  22  0.902  0.157  0.902- 110 1.62  29 1.76  34 1.77 104 1.77  81 1.79  56 1.81
  23  0.902  0.657  0.402- 111 1.62  32 1.76  35 1.77 101 1.77  84 1.79  53 1.81
  24  0.902  0.657  0.902- 112 1.62  31 1.76  36 1.77 102 1.77  83 1.79  54 1.81
  25  0.341  0.097  0.097- 113 1.60 100 1.75  11 1.76  18 1.76  77 1.80  85 1.81
  26  0.341  0.097  0.597- 114 1.60  99 1.75  12 1.76  17 1.76  78 1.80  86 1.81
  27  0.341  0.597  0.097- 115 1.60  98 1.75   9 1.76  20 1.76  79 1.80  87 1.81
  28  0.341  0.597  0.597- 116 1.60  97 1.75  10 1.76  19 1.76  80 1.80  88 1.81
  29  0.841  0.097  0.097- 117 1.60 104 1.75  15 1.76  22 1.76  73 1.80  81 1.81
  30  0.841  0.097  0.597- 118 1.60 103 1.75  16 1.76  21 1.76  74 1.80  82 1.81
  31  0.841  0.597  0.097- 119 1.60 102 1.75  13 1.76  24 1.76  75 1.80  83 1.81
  32  0.841  0.597  0.597- 120 1.60 101 1.75  14 1.76  23 1.76  76 1.80  84 1.81
  33  0.099  0.097  0.344- 113 1.62   3 1.75  21 1.77  55 1.80  82 1.81  66 1.82
  34  0.099  0.097  0.844- 114 1.62   4 1.75  22 1.77  56 1.80  81 1.81  65 1.82
  35  0.099  0.597  0.344- 115 1.62   1 1.75  23 1.77  53 1.80  84 1.81  68 1.82
  36  0.099  0.597  0.844- 116 1.62   2 1.75  24 1.77  54 1.80  83 1.81  67 1.82
  37  0.599  0.097  0.344- 117 1.62   7 1.75  17 1.77  51 1.80  86 1.81  70 1.82
  38  0.599  0.097  0.844- 118 1.62   8 1.75  18 1.77  52 1.80  85 1.81  69 1.82
  39  0.599  0.597  0.344- 119 1.62   5 1.75  19 1.77  49 1.80  88 1.81  72 1.82
  40  0.599  0.597  0.844- 120 1.62   6 1.75  20 1.77  50 1.80  87 1.81  71 1.82
  41  0.099  0.344  0.097- 113 1.62   2 1.75  13 1.77  62 1.80  75 1.81  67 1.82
  42  0.099  0.344  0.597- 114 1.62   1 1.75  14 1.77  61 1.80  76 1.81  68 1.82
  43  0.099  0.844  0.097- 115 1.62   4 1.75  15 1.77  64 1.80  73 1.81  65 1.82
  44  0.099  0.844  0.597- 116 1.62   3 1.75  16 1.77  63 1.80  74 1.81  66 1.82
  45  0.599  0.344  0.097- 117 1.62   6 1.75   9 1.77  58 1.80  79 1.81  71 1.82
  46  0.599  0.344  0.597- 118 1.62   5 1.75  10 1.77  57 1.80  80 1.81  72 1.82
  47  0.599  0.844  0.097- 119 1.62   8 1.75  11 1.77  60 1.80  77 1.81  69 1.82
  48  0.599  0.844  0.597- 120 1.62   7 1.75  12 1.77  59 1.80  78 1.81  70 1.82
  49  0.494  0.497  0.337-  79 1.74  97 1.79  39 1.80  19 1.81  57 1.81   5 1.81
  50  0.494  0.497  0.837-  80 1.74  98 1.79  40 1.80  20 1.81  58 1.81   6 1.81
  51  0.494  0.997  0.337-  77 1.74  99 1.79  37 1.80  17 1.81  59 1.81   7 1.81
  52  0.494  0.997  0.837-  78 1.74 100 1.79  38 1.80  18 1.81  60 1.81   8 1.81
  53  0.994  0.497  0.337-  75 1.74 101 1.79  35 1.80  23 1.81  61 1.81   1 1.81
  54  0.994  0.497  0.837-  76 1.74 102 1.79  36 1.80  24 1.81  62 1.81   2 1.81
  55  0.994  0.997  0.337-  73 1.74 103 1.79  33 1.80  21 1.81  63 1.81   3 1.81
  56  0.994  0.997  0.837-  74 1.74 104 1.79  34 1.80  22 1.81  64 1.81   4 1.81
  57  0.494  0.337  0.497-  86 1.74  97 1.78  46 1.80  49 1.81  10 1.81   5 1.82
  58  0.494  0.337  0.997-  85 1.74  98 1.78  45 1.80  50 1.81   9 1.81   6 1.82
  59  0.494  0.837  0.497-  88 1.74  99 1.78  48 1.80  51 1.81  12 1.81   7 1.82
  60  0.494  0.837  0.997-  87 1.74 100 1.78  47 1.80  52 1.81  11 1.81   8 1.82
  61  0.994  0.337  0.497-  82 1.74 101 1.78  42 1.80  53 1.81  14 1.81   1 1.82
  62  0.994  0.337  0.997-  81 1.74 102 1.78  41 1.80  54 1.81  13 1.81   2 1.82
  63  0.994  0.837  0.497-  84 1.74 103 1.78  44 1.80  55 1.81  16 1.81   3 1.82
  64  0.994  0.837  0.997-  83 1.74 104 1.78  43 1.80  56 1.81  15 1.81   4 1.82
  65  0.171  0.003  0.003- 100 1.67   4 1.81  34 1.82  43 1.82  81 1.84  73 1.85
  66  0.171  0.003  0.503-  99 1.67   3 1.81  33 1.82  44 1.82  82 1.84  74 1.85
  67  0.171  0.503  0.003-  98 1.67   2 1.81  36 1.82  41 1.82  83 1.84  75 1.85
  68  0.171  0.503  0.503-  97 1.67   1 1.81  35 1.82  42 1.82  84 1.84  76 1.85
  69  0.671  0.003  0.003- 104 1.67   8 1.81  38 1.82  47 1.82  85 1.84  77 1.85
  70  0.671  0.003  0.503- 103 1.67   7 1.81  37 1.82  48 1.82  86 1.84  78 1.85
  71  0.671  0.503  0.003- 102 1.67   6 1.81  40 1.82  45 1.82  87 1.84  79 1.85
  72  0.671  0.503  0.503- 101 1.67   5 1.81  39 1.82  46 1.82  88 1.84  80 1.85
  73  0.003  0.003  0.164-  55 1.74  15 1.79  29 1.80  43 1.81  81 1.82  65 1.85
  74  0.003  0.003  0.664-  56 1.74  16 1.79  30 1.80  44 1.81  82 1.82  66 1.85
  75  0.003  0.503  0.164-  53 1.74  13 1.79  31 1.80  41 1.81  83 1.82  67 1.85
  76  0.003  0.503  0.664-  54 1.74  14 1.79  32 1.80  42 1.81  84 1.82  68 1.85
  77  0.503  0.003  0.164-  51 1.74  11 1.79  25 1.80  47 1.81  85 1.82  69 1.85
  78  0.503  0.003  0.664-  52 1.74  12 1.79  26 1.80  48 1.81  86 1.82  70 1.85
  79  0.503  0.503  0.164-  49 1.74   9 1.79  27 1.80  45 1.81  87 1.82  71 1.85
  80  0.503  0.503  0.664-  50 1.74  10 1.79  28 1.80  46 1.81  88 1.82  72 1.85
  81  0.003  0.164  0.003-  62 1.74  22 1.79  29 1.81  34 1.81  73 1.82  65 1.84
  82  0.003  0.164  0.503-  61 1.74  21 1.79  30 1.81  33 1.81  74 1.82  66 1.84
  83  0.003  0.664  0.003-  64 1.74  24 1.79  31 1.81  36 1.81  75 1.82  67 1.84
  84  0.003  0.664  0.503-  63 1.74  23 1.79  32 1.81  35 1.81  76 1.82  68 1.84
  85  0.503  0.164  0.003-  58 1.74  18 1.79  25 1.81  38 1.81  77 1.82  69 1.84
  86  0.503  0.164  0.503-  57 1.74  17 1.79  26 1.81  37 1.81  78 1.82  70 1.84
  87  0.503  0.664  0.003-  60 1.74  20 1.79  27 1.81  40 1.81  79 1.82  71 1.84
  88  0.503  0.664  0.503-  59 1.74  19 1.79  28 1.81  39 1.81  80 1.82  72 1.84
  89  0.248  0.249  0.249- 113 1.43 105 1.44
  90  0.248  0.249  0.749- 114 1.43 106 1.44
  91  0.248  0.749  0.249- 115 1.43 107 1.44
  92  0.248  0.749  0.749- 116 1.43 108 1.44
  93  0.748  0.249  0.249- 117 1.43 109 1.44
  94  0.748  0.249  0.749- 118 1.43 110 1.44
  95  0.748  0.749  0.249- 119 1.43 111 1.44
  96  0.748  0.749  0.749- 120 1.43 112 1.44
  97  0.338  0.498  0.498-  68 1.67  28 1.75  10 1.77  19 1.77  57 1.78  49 1.79
  98  0.338  0.498  0.998-  67 1.67  27 1.75   9 1.77  20 1.77  58 1.78  50 1.79
  99  0.338  0.998  0.498-  66 1.67  26 1.75  12 1.77  17 1.77  59 1.78  51 1.79
 100  0.338  0.998  0.998-  65 1.67  25 1.75  11 1.77  18 1.77  60 1.78  52 1.79
 101  0.838  0.498  0.498-  72 1.67  32 1.75  14 1.77  23 1.77  61 1.78  53 1.79
 102  0.838  0.498  0.998-  71 1.67  31 1.75  13 1.77  24 1.77  62 1.78  54 1.79
 103  0.838  0.998  0.498-  70 1.67  30 1.75  16 1.77  21 1.77  63 1.78  55 1.79
 104  0.838  0.998  0.998-  69 1.67  29 1.75  15 1.77  22 1.77  64 1.78  56 1.79
 105  0.306  0.309  0.309-  89 1.44   1 1.61  17 1.62   9 1.63
 106  0.306  0.309  0.809-  90 1.44   2 1.61  18 1.62  10 1.63
 107  0.306  0.809  0.309-  91 1.44   3 1.61  19 1.62  11 1.63
 108  0.306  0.809  0.809-  92 1.44   4 1.61  20 1.62  12 1.63
 109  0.806  0.309  0.309-  93 1.44   5 1.61  21 1.62  13 1.63
 110  0.806  0.309  0.809-  94 1.44   6 1.61  22 1.62  14 1.63
 111  0.806  0.809  0.309-  95 1.44   7 1.61  23 1.62  15 1.63
 112  0.806  0.809  0.809-  96 1.44   8 1.61  24 1.62  16 1.63
 113  0.191  0.189  0.189-  89 1.43  25 1.60  41 1.62  33 1.62
 114  0.191  0.189  0.689-  90 1.43  26 1.60  42 1.62  34 1.62
 115  0.191  0.689  0.189-  91 1.43  27 1.60  43 1.62  35 1.62
 116  0.191  0.689  0.689-  92 1.43  28 1.60  44 1.62  36 1.62
 117  0.691  0.189  0.189-  93 1.43  29 1.60  45 1.62  37 1.62
 118  0.691  0.189  0.689-  94 1.43  30 1.60  46 1.62  38 1.62
 119  0.691  0.689  0.189-  95 1.43  31 1.60  47 1.62  39 1.62
 120  0.691  0.689  0.689-  96 1.43  32 1.60  48 1.62  40 1.62
 
  LATTYP: Found a triclinic cell.
 ALAT       =    19.0087368153
 B/A-ratio  =     0.5918502818
 C/A-ratio  =     1.6516819507
 COS(alpha) =     0.0006159862
 COS(beta)  =     0.4423436020
 COS(gamma) =     0.8874404535
  
  Lattice vectors:
  
 A1 = (   2.8072940000,   8.9555040000, -16.5302790000)
 A2 = (   2.7553380000,   9.0275370000,  -6.1222160000)
 A3 = (   4.0281690000, -18.2930170000, -25.1966770000)


Analysis of symmetry for initial positions (statically):
=====================================================================
 Subroutine PRICEL returns following result:
 
  LATTYP: Found a triclinic cell.
 ALAT       =     9.5043684077
 B/A-ratio  =     0.5918502818
 C/A-ratio  =     1.6516819507
 COS(alpha) =     0.0006159862
 COS(beta)  =     0.4423436020
 COS(gamma) =     0.8874404535
  
  Lattice vectors:
  
 A1 = (   1.4036470000,   4.4777520000,  -8.2651395000)
 A2 = (   1.3776690000,   4.5137685000,  -3.0611080000)
 A3 = (   2.0140845000,  -9.1465085000, -12.5983385000)
 
   8 primitive cells build up your supercell.
 

 Routine SETGRP: Setting up the symmetry group for a 
 triclinic supercell.


 Subroutine GETGRP returns: Found  1 space group operations
 (whereof  1 operations were pure point group operations)
 out of a pool of  2 trial point group operations.


The static configuration has the point symmetry C_1 .


Analysis of symmetry for dynamics (positions and initial velocities):
=====================================================================
 Subroutine PRICEL returns following result:
 
  LATTYP: Found a triclinic cell.
 ALAT       =     9.5043684077
 B/A-ratio  =     0.5918502818
 C/A-ratio  =     1.6516819507
 COS(alpha) =     0.0006159862
 COS(beta)  =     0.4423436020
 COS(gamma) =     0.8874404535
  
  Lattice vectors:
  
 A1 = (   1.4036470000,   4.4777520000,  -8.2651395000)
 A2 = (   1.3776690000,   4.5137685000,  -3.0611080000)
 A3 = (   2.0140845000,  -9.1465085000, -12.5983385000)
 
   8 primitive cells build up your supercell.
 

 Routine SETGRP: Setting up the symmetry group for a 
 triclinic supercell.


 Subroutine GETGRP returns: Found  1 space group operations
 (whereof  1 operations were pure point group operations)
 out of a pool of  2 trial point group operations.


The dynamic configuration has the point symmetry C_1 .


 Subroutine INISYM returns: Found  1 space group operations
 (whereof  1 operations are pure point group operations),
 and found     8 'primitive' translations


----------------------------------------------------------------------------------------

                                     Primitive cell                                     

  volume of cell :     110.2780

  direct lattice vectors                    reciprocal lattice vectors
     1.403647000  4.477752000 -8.265139500    -0.769549723  0.101479954 -0.196702559
     1.377669000  4.513768500 -3.061108000     1.197059778 -0.009402876  0.198199392
     2.014084500 -9.146508500-12.598338500     0.214004930 -0.064291236  0.001513243

  length of vectors
     9.504368408  5.625163121 15.698193752     0.800747684  1.213393393  0.223458638

  position of ions in fractional coordinates (direct lattice)
     0.121584000  0.317624000  0.315846000
     0.667828000  0.743376000  0.803264000
     0.667828000  0.253140000  0.803264000
     0.882412000  0.676382000  0.682732000
     0.329306000  0.259166000  0.197400000
     0.329306000  0.752916000  0.197400000
     0.376030000  0.596556000  0.988894000
     0.376030000  0.275354000  0.988894000
     0.621840000  0.067240000  0.341590000
     0.637966000  0.381444000  0.006950000
     0.637966000  0.704658000  0.006950000
     0.020004000  0.469994000  0.495990000
     0.301600000  0.047600000  0.676672000
     0.313548000  0.529678000  0.612176000
     0.716748000  0.424878000  0.381978000

  ion indices of the primitive-cell ions
   primitive index   ion index
                 1           1
                 2           9
                 3          17
                 4          28
                 5          35
                 6          42
                 7          53
                 8          61
                 9          68
                10          75
                11          82
                12          89
                13          97
                14         105
                15         113

----------------------------------------------------------------------------------------

 
 -----------------------------------------------------------------------------
|                                                                             |
|           W    W    AA    RRRRR   N    N  II  N    N   GGGG   !!!           |
|           W    W   A  A   R    R  NN   N  II  NN   N  G    G  !!!           |
|           W    W  A    A  R    R  N N  N  II  N N  N  G       !!!           |
|           W WW W  AAAAAA  RRRRR   N  N N  II  N  N N  G  GGG   !            |
|           WW  WW  A    A  R   R   N   NN  II  N   NN  G    G                |
|           W    W  A    A  R    R  N    N  II  N    N   GGGG   !!!           |
|                                                                             |
|     The requested file  could not be found or opened for reading            |
|     k-point information. Automatic k-point generation is used as a          |
|     fallback, which may lead to unwanted results.                           |
|                                                                             |
 -----------------------------------------------------------------------------

 

Automatic generation of k-mesh.
 Grid dimensions derived from KSPACING:
 generate k-points for:    2    2    2

 Generating k-lattice:

  Cartesian coordinates                     Fractional coordinates (reciprocal lattice)
     0.053501232 -0.016072809  0.000378311     0.500000000  0.000000000  0.000000000
    -0.000124951  0.055164888 -0.000382414    -0.000000000  0.500000000 -0.000000000
    -0.021492548 -0.016243640  0.048044810    -0.000000000 -0.000000000  0.500000000

  Length of vectors
     0.055864660  0.055166355  0.055082568

  Shift w.r.t. Gamma in fractional coordinates (k-lattice)
     0.000000000  0.000000000  0.000000000

 TETIRR: Found     24 inequivalent tetrahedra from       48
 
 Subroutine IBZKPT returns following result:
 ===========================================
 
 Found      8 irreducible k-points:
 
 Following reciprocal coordinates:
            Coordinates               Weight
  0.000000  0.000000  0.000000      1.000000
  0.500000  0.000000  0.000000      1.000000
  0.000000  0.500000  0.000000      1.000000
  0.500000  0.500000  0.000000      1.000000
  0.000000  0.000000  0.500000      1.000000
  0.500000  0.000000  0.500000      1.000000
  0.000000  0.500000  0.500000      1.000000
  0.500000  0.500000  0.500000      1.000000
 
 Following cartesian coordinates:
            Coordinates               Weight
  0.000000  0.000000  0.000000      1.000000
  0.053501 -0.016073  0.000378      1.000000
 -0.000125  0.055165 -0.000382      1.000000
  0.053376  0.039092 -0.000004      1.000000
 -0.021493 -0.016244  0.048045      1.000000
  0.032009 -0.032316  0.048423      1.000000
 -0.021617  0.038921  0.047662      1.000000
  0.031884  0.022848  0.048041      1.000000
 


--------------------------------------------------------------------------------------------------------




 Dimension of arrays:
   k-points           NKPTS =      8   k-points in BZ     NKDIM =      8   number of bands    NBANDS=    253
   number of dos      NEDOS =    301   number of ions     NIONS =    120
   non local maximal  LDIM  =      4   non local SUM 2l+1 LMDIM =      8
   total plane-waves  NPLWV = 729000
   max r-space proj   IRMAX =   5182   max aug-charges    IRDMAX=  13084
   dimension x,y,z NGX =    90 NGY =   90 NGZ =   90
   dimension x,y,z NGXF=   180 NGYF=  180 NGZF=  180
   support grid    NGXF=   180 NGYF=  180 NGZF=  180
   ions per type =              96  24
   NGX,Y,Z   is equivalent  to a cutoff of  14.63, 14.37, 14.37 a.u.
   NGXF,Y,Z  is equivalent  to a cutoff of  29.25, 28.73, 28.75 a.u.

 SYSTEM =  unknown system                          
 POSCAR =  B96 C24                                 

 Startparameter for this run:
   NWRITE =      2    write-flag & timer
   PREC   = accura    normal or accurate (medium, high low for compatibility)
   ISTART =      0    job   : 0-new  1-cont  2-samecut
   ICHARG =      2    charge: 1-file 2-atom 10-const
   ISPIN  =      1    spin polarized calculation?
   LNONCOLLINEAR =      F non collinear calculations
   LSORBIT =      F    spin-orbit coupling
   INIWAV =      1    electr: 0-lowe 1-rand  2-diag
   LASPH  =      F    aspherical Exc in radial PAW
   METAGGA=      F    non-selfconsistent MetaGGA calc.

 Electronic Relaxation 1
   ENCUT  =  700.0 eV  51.45 Ry    7.17 a.u.  22.07 22.47 22.45*2*pi/ulx,y,z
   ENINI  =  700.0     initial cutoff
   ENAUG  =  644.9 eV  augmentation charge cutoff
   NELM   =     60;   NELMIN=  2; NELMDL= -5     # of ELM steps 
   EDIFF  = 0.1E-05   stopping-criterion for ELM
   LREAL  =      T    real-space projection
   NLSPLINE    = F    spline interpolate recip. space projectors
   LCOMPAT=      F    compatible to vasp.4.4
   GGA_COMPAT  = T    GGA compatible to vasp.4.4-vasp.4.6
   LMAXPAW     = -100 max onsite density
   LMAXMIX     =    2 max onsite mixed and CHGCAR
   VOSKOWN=      0    Vosko Wilk Nusair interpolation
   ROPT   =   -0.00025  -0.00025
 Ionic relaxation
   EDIFFG = 0.1E-04   stopping-criterion for IOM
   NSW    =    300    number of steps for IOM
   NBLOCK =      1;   KBLOCK =    300    inner block; outer block 
   IBRION =      2    ionic relax: 0-MD 1-quasi-New 2-CG
   NFREE  =      1    steps in history (QN), initial steepest desc. (CG)
   ISIF   =      4    stress and relaxation
   IWAVPR =     11    prediction:  0-non 1-charg 2-wave 3-comb
   ISYM   =      2    0-nonsym 1-usesym 2-fastsym
   LCORR  =      T    Harris-Foulkes like correction to forces

   POTIM  = 0.5000    time-step for ionic-motion
   TEIN   =    0.0    initial temperature
   TEBEG  =    0.0;   TEEND  =   0.0 temperature during run
   SMASS  =  -3.00    Nose mass-parameter (am)
   estimated Nose-frequenzy (Omega)   =  0.10E-29 period in steps = 0.13E+47 mass=  -0.239E-26a.u.
   SCALEE = 1.0000    scale energy and forces
   NPACO  =    256;   APACO  = 16.0  distance and # of slots for P.C.
   PSTRESS=    0.0 pullay stress

  Mass of Ions in am
   POMASS =  10.81 12.01
  Ionic Valenz
   ZVAL   =   3.00  4.00
  Atomic Wigner-Seitz radii
   RWIGS  =  -1.00 -1.00
  virtual crystal weights 
   VCA    =   1.00  1.00
   NELECT =     384.0000    total number of electrons
   NUPDOWN=      -1.0000    fix difference up-down

 DOS related values:
   EMIN   =  10.00;   EMAX   =-10.00  energy-range for DOS
   EFERMI =   0.00
   ISMEAR =    -5;   SIGMA  =   0.05  broadening in eV -4-tet -1-fermi 0-gaus

 Electronic relaxation 2 (details)
   IALGO  =     68    algorithm
   LDIAG  =      T    sub-space diagonalisation (order eigenvalues)
   LSUBROT=      F    optimize rotation matrix (better conditioning)
   TURBO    =      0    0=normal 1=particle mesh
   IRESTART =      0    0=no restart 2=restart with 2 vectors
   NREBOOT  =      0    no. of reboots
   NMIN     =      0    reboot dimension
   EREF     =   0.00    reference energy to select bands
   IMIX   =      4    mixing-type and parameters
     AMIX     =   0.40;   BMIX     =  1.00
     AMIX_MAG =   1.60;   BMIX_MAG =  1.00
     AMIN     =   0.10
     WC   =   100.;   INIMIX=   1;  MIXPRE=   1;  MAXMIX= -45

 Intra band minimization:
   WEIMIN = 0.0010     energy-eigenvalue tresh-hold
   EBREAK =  0.99E-09  absolut break condition
   DEPER  =   0.30     relativ break condition  

   TIME   =   0.40     timestep for ELM

  volume/ion in A,a.u.               =       7.35        49.61
  Fermi-wavevector in a.u.,A,eV,Ry     =   1.240677  2.344540 20.943184  1.539281
  Thomas-Fermi vector in A             =   2.375108
 
 Write flags
   LWAVE        =      F    write WAVECAR
   LDOWNSAMPLE  =      F    k-point downsampling of WAVECAR
   LCHARG       =      T    write CHGCAR
   LVTOT        =      F    write LOCPOT, total local potential
   LVHAR        =      F    write LOCPOT, Hartree potential only
   LELF         =      F    write electronic localiz. function (ELF)
   LORBIT       =      0    0 simple, 1 ext, 2 COOP (PROOUT), +10 PAW based schemes


 Dipole corrections
   LMONO  =      F    monopole corrections only (constant potential shift)
   LDIPOL =      F    correct potential (dipole corrections)
   IDIPOL =      0    1-x, 2-y, 3-z, 4-all directions 
   EPSILON=  1.0000000 bulk dielectric constant

 Exchange correlation treatment:
   GGA     =    --    GGA type
   LEXCH   =     8    internal setting for exchange type
   VOSKOWN=      0    Vosko Wilk Nusair interpolation
   LHFCALC =     F    Hartree Fock is set to
   LHFONE  =     F    Hartree Fock one center treatment
   AEXX    =    0.0000 exact exchange contribution

 Linear response parameters
   LEPSILON=     F    determine dielectric tensor
   LRPA    =     F    only Hartree local field effects (RPA)
   LNABLA  =     F    use nabla operator in PAW spheres
   LVEL    =     F    velocity operator in full k-point grid
   LINTERFAST=   F  fast interpolation
   KINTER  =     0    interpolate to denser k-point grid
   CSHIFT  =0.1000    complex shift for real part using Kramers Kronig
   OMEGAMAX=  -1.0    maximum frequency
   DEG_THRESHOLD= 0.2000000E-02 threshold for treating states as degnerate
   RTIME   =   -0.100 relaxation time in fs
  (WPLASMAI=    0.000 imaginary part of plasma frequency in eV, 0.658/RTIME)
   DFIELD  = 0.0000000 0.0000000 0.0000000 field for delta impulse in time
 
 Orbital magnetization related:
   ORBITALMAG=     F  switch on orbital magnetization
   LCHIMAG   =     F  perturbation theory with respect to B field
   DQ        =  0.001000  dq finite difference perturbation B field
   LLRAUG    =     F  two centre corrections for induced B field



--------------------------------------------------------------------------------------------------------


 conjugate gradient relaxation of ions
 charge density and potential will be updated during run
 non-spin polarized calculation
 RMM-DIIS sequential band-by-band and
  variant of blocked Davidson during initial phase
 perform sub-space diagonalisation
    before iterative eigenvector-optimisation
 modified Broyden-mixing scheme, WC =      100.0
 initial mixing is a Kerker type mixing with AMIX =  0.4000 and BMIX =      1.0000
 Hartree-type preconditioning will be used
 using additional bands            61
 real space projection scheme for non local part
 use partial core corrections
 calculate Harris-corrections to forces 
   (improved forces if not selfconsistent)
 use gradient corrections 
 use of overlap-Matrix (Vanderbilt PP)
 Fermi weights with tetrahedron method with Bloechl corrections


--------------------------------------------------------------------------------------------------------


  energy-cutoff  :      700.00
  volume of cell :      882.22
      direct lattice vectors                 reciprocal lattice vectors
     9.331021000  0.050189000  4.191143000     0.107002465 -0.032145618  0.000756622
     2.703382000  9.099570000  4.285847000    -0.000249902  0.110329775 -0.000764827
    -0.051956000  0.072033000 10.408063000    -0.042985096 -0.032487280  0.096089620

  length of vectors
    10.229181369 10.415322027 10.408441939     0.111729319  0.110332709  0.110165135


 
 k-points in units of 2pi/SCALE and weight: read from INCAR                         
   0.00000000  0.00000000  0.00000000       0.125
   0.05350123 -0.01607281  0.00037831       0.125
  -0.00012495  0.05516489 -0.00038241       0.125
   0.05337628  0.03909208 -0.00000410       0.125
  -0.02149255 -0.01624364  0.04804481       0.125
   0.03200868 -0.03231645  0.04842312       0.125
  -0.02161750  0.03892125  0.04766240       0.125
   0.03188373  0.02284844  0.04804071       0.125
 
 k-points in reciprocal lattice and weights: read from INCAR                         
   0.00000000  0.00000000  0.00000000       0.125
   0.50000000  0.00000000  0.00000000       0.125
   0.00000000  0.50000000  0.00000000       0.125
   0.50000000  0.50000000  0.00000000       0.125
   0.00000000  0.00000000  0.50000000       0.125
   0.50000000  0.00000000  0.50000000       0.125
   0.00000000  0.50000000  0.50000000       0.125
   0.50000000  0.50000000  0.50000000       0.125
 
 position of ions in fractional coordinates (direct lattice) 
   0.15792300  0.40375800  0.40375800
   0.15792300  0.40375800  0.90375800
   0.15792300  0.90375800  0.40375800
   0.15792300  0.90375800  0.90375800
   0.65792300  0.40375800  0.40375800
   0.65792300  0.40375800  0.90375800
   0.65792300  0.90375800  0.40375800
   0.65792300  0.90375800  0.90375800
   0.40163200  0.40233800  0.15722000
   0.40163200  0.40233800  0.65722000
   0.40163200  0.90233800  0.15722000
   0.40163200  0.90233800  0.65722000
   0.90163200  0.40233800  0.15722000
   0.90163200  0.40233800  0.65722000
   0.90163200  0.90233800  0.15722000
   0.90163200  0.90233800  0.65722000
   0.40163200  0.15722000  0.40233800
   0.40163200  0.15722000  0.90233800
   0.40163200  0.65722000  0.40233800
   0.40163200  0.65722000  0.90233800
   0.90163200  0.15722000  0.40233800
   0.90163200  0.15722000  0.90233800
   0.90163200  0.65722000  0.40233800
   0.90163200  0.65722000  0.90233800
   0.34136600  0.09666500  0.09666500
   0.34136600  0.09666500  0.59666500
   0.34136600  0.59666500  0.09666500
   0.34136600  0.59666500  0.59666500
   0.84136600  0.09666500  0.09666500
   0.84136600  0.09666500  0.59666500
   0.84136600  0.59666500  0.09666500
   0.84136600  0.59666500  0.59666500
   0.09870000  0.09683600  0.34371100
   0.09870000  0.09683600  0.84371100
   0.09870000  0.59683600  0.34371100
   0.09870000  0.59683600  0.84371100
   0.59870000  0.09683600  0.34371100
   0.59870000  0.09683600  0.84371100
   0.59870000  0.59683600  0.34371100
   0.59870000  0.59683600  0.84371100
   0.09870000  0.34371100  0.09683600
   0.09870000  0.34371100  0.59683600
   0.09870000  0.84371100  0.09683600
   0.09870000  0.84371100  0.59683600
   0.59870000  0.34371100  0.09683600
   0.59870000  0.34371100  0.59683600
   0.59870000  0.84371100  0.09683600
   0.59870000  0.84371100  0.59683600
   0.49444700  0.49739900  0.33679800
   0.49444700  0.49739900  0.83679800
   0.49444700  0.99739900  0.33679800
   0.49444700  0.99739900  0.83679800
   0.99444700  0.49739900  0.33679800
   0.99444700  0.49739900  0.83679800
   0.99444700  0.99739900  0.33679800
   0.99444700  0.99739900  0.83679800
   0.49444700  0.33679800  0.49739900
   0.49444700  0.33679800  0.99739900
   0.49444700  0.83679800  0.49739900
   0.49444700  0.83679800  0.99739900
   0.99444700  0.33679800  0.49739900
   0.99444700  0.33679800  0.99739900
   0.99444700  0.83679800  0.49739900
   0.99444700  0.83679800  0.99739900
   0.17079500  0.00295000  0.00295000
   0.17079500  0.00295000  0.50295000
   0.17079500  0.50295000  0.00295000
   0.17079500  0.50295000  0.50295000
   0.67079500  0.00295000  0.00295000
   0.67079500  0.00295000  0.50295000
   0.67079500  0.50295000  0.00295000
   0.67079500  0.50295000  0.50295000
   0.00347500  0.00275500  0.16436200
   0.00347500  0.00275500  0.66436200
   0.00347500  0.50275500  0.16436200
   0.00347500  0.50275500  0.66436200
   0.50347500  0.00275500  0.16436200
   0.50347500  0.00275500  0.66436200
   0.50347500  0.50275500  0.16436200
   0.50347500  0.50275500  0.66436200
   0.00347500  0.16436200  0.00275500
   0.00347500  0.16436200  0.50275500
   0.00347500  0.66436200  0.00275500
   0.00347500  0.66436200  0.50275500
   0.50347500  0.16436200  0.00275500
   0.50347500  0.16436200  0.50275500
   0.50347500  0.66436200  0.00275500
   0.50347500  0.66436200  0.50275500
   0.24799500  0.24900900  0.24900900
   0.24799500  0.24900900  0.74900900
   0.24799500  0.74900900  0.24900900
   0.24799500  0.74900900  0.74900900
   0.74799500  0.24900900  0.24900900
   0.74799500  0.24900900  0.74900900
   0.74799500  0.74900900  0.24900900
   0.74799500  0.74900900  0.74900900
   0.33833600  0.49792800  0.49792800
   0.33833600  0.49792800  0.99792800
   0.33833600  0.99792800  0.49792800
   0.33833600  0.99792800  0.99792800
   0.83833600  0.49792800  0.49792800
   0.83833600  0.49792800  0.99792800
   0.83833600  0.99792800  0.49792800
   0.83833600  0.99792800  0.99792800
   0.30608800  0.30943700  0.30943700
   0.30608800  0.30943700  0.80943700
   0.30608800  0.80943700  0.30943700
   0.30608800  0.80943700  0.80943700
   0.80608800  0.30943700  0.30943700
   0.80608800  0.30943700  0.80943700
   0.80608800  0.80943700  0.30943700
   0.80608800  0.80943700  0.80943700
   0.19098900  0.18883500  0.18883500
   0.19098900  0.18883500  0.68883500
   0.19098900  0.68883500  0.18883500
   0.19098900  0.68883500  0.68883500
   0.69098900  0.18883500  0.18883500
   0.69098900  0.18883500  0.68883500
   0.69098900  0.68883500  0.18883500
   0.69098900  0.68883500  0.68883500
 
 position of ions in cartesian coordinates  (Angst):
   2.54411729  3.71103408  6.59466159
   2.51813929  3.74705058 11.79869309
   3.89580829  8.26081908  8.73758509
   3.86983029  8.29683558 13.94161659
   7.20962779  3.73612858  8.69023309
   7.18364979  3.77214508 13.89426459
   8.56131879  8.28591358 10.83315659
   8.53534079  8.32193008 16.03718809
   4.82714141  3.69258533  5.04401192
   4.80116341  3.72860183 10.24804342
   6.17883241  8.24237033  7.18693542
   6.15285441  8.27838683 12.39096692
   9.49265191  3.71767983  7.13958342
   9.46667391  3.75369633 12.34361492
  10.84434291  8.26746483  9.28250692
  10.81836491  8.30348133 14.48653842
   4.15175847  1.47977352  6.54467726
   4.12578047  1.51579002 11.74870876
   5.50344947  6.02955852  8.68760076
   5.47747147  6.06557502 13.89163226
   8.81726897  1.50486802  8.64024876
   8.79129097  1.54088452 13.84428026
  10.16895997  6.05465302 10.78317226
  10.14298197  6.09066952 15.98720376
   3.44159341  0.90370582  2.85110053
   3.41561541  0.93972232  8.05513203
   4.79328441  5.45349082  4.99402403
   4.76730641  5.48950732 10.19805553
   8.10710391  0.92880032  4.94667203
   8.08112591  0.96481682 10.15070353
   9.45879491  5.47858532  7.08959553
   9.43281691  5.51460182 12.29362703
   1.16489862  0.91087815  4.40605584
   1.13892062  0.94689465  9.61008734
   2.51658962  5.46066315  6.54897934
   2.49061162  5.49667965 11.75301084
   5.83040912  0.93597265  6.50162734
   5.80443112  0.97198915 11.70565884
   7.18210012  5.48575765  8.64455084
   7.15612212  5.52177415 13.84858234
   1.84512269  3.13955135  2.89463376
   1.81914469  3.17556785  8.09866526
   3.19681369  7.68933635  5.03755726
   3.17083569  7.72535285 10.24158876
   6.51063319  3.16464585  4.99020526
   6.48465519  3.20066235 10.19423676
   7.86232419  7.71443085  7.13312876
   7.83634619  7.75044735 12.33716026
   5.94085617  4.57519339  7.70948890
   5.91487817  4.61120989 12.91352040
   7.29254717  9.12497839  9.85241240
   7.26656917  9.16099489 15.05644390
  10.60636667  4.60028789  9.80506040
  10.58038867  4.63630439 15.00909190
  11.95805767  9.15007289 11.94798390
  11.93207967  9.18608939 17.15201540
   5.49834613  3.12536192  8.69272291
   5.47236813  3.16137842 13.89675441
   6.85003713  7.67514692 10.83564641
   6.82405913  7.71116342 16.03967791
  10.16385663  3.15045642 10.78829441
  10.13787863  3.18647292 15.99232591
  11.51554763  7.70024142 12.93121791
  11.48956963  7.73625792 18.13524941
   1.60151344  0.03562826  0.75917330
   1.57553544  0.07164476  5.96320480
   2.95320444  4.58541326  2.90209680
   2.92722644  4.62142976  8.10612830
   6.26702394  0.06072276  2.85474480
   6.24104594  0.09673926  8.05877630
   7.61871494  4.61050776  4.99766830
   7.59273694  4.64652426 10.20169980
   0.03133352  0.03708321  1.73706178
   0.00535552  0.07309971  6.94109328
   1.38302452  4.58686821  3.87998528
   1.35704652  4.62288471  9.08401678
   4.69684402  0.06217771  3.83263328
   4.67086602  0.09819421  9.03666478
   6.04853502  4.61196271  5.97555678
   6.02255702  4.64797921 11.17958828
   0.47661543  1.49599638  0.74766882
   0.45063743  1.53201288  5.95170032
   1.82830643  6.04578138  2.89059232
   1.80232843  6.08179788  8.09462382
   5.14212593  1.52109088  2.84324032
   5.11614793  1.55710738  8.04727182
   6.49381693  6.07087588  4.98616382
   6.46783893  6.10689238 10.19019532
   2.97427549  2.29625831  4.69829834
   2.94829749  2.33227481  9.90232984
   4.32596649  6.84604331  6.84122184
   4.29998849  6.88205981 12.04525334
   7.63978599  2.32135281  6.79386984
   7.61380799  2.35736931 11.99790134
   8.99147699  6.87113781  8.93679334
   8.96549899  6.90715431 14.14082484
   4.47723957  4.58377868  8.73452378
   4.45126157  4.61979518 13.93855528
   5.82893057  9.13356368 10.87744728
   5.80295257  9.16958018 16.08147878
   9.14275007  4.60887318 10.83009528
   9.11677207  4.64488968 16.03412678
  10.49444107  9.15865818 12.97301878
  10.46846307  9.19467468 18.17705028
   3.67656286  2.85339557  5.82969801
   3.65058486  2.88941207 11.03372951
   5.02825386  7.40318057  7.97262151
   5.00227586  7.43919707 13.17665301
   8.34207336  2.87849007  7.92526951
   8.31609536  2.91450657 13.12930101
   9.69376436  7.42827507 10.06819301
   9.66778636  7.46429157 15.27222451
   2.28280440  1.74150520  3.57518671
   2.25682640  1.77752170  8.77921821
   3.63449540  6.29129020  5.71811021
   3.60851740  6.32730670 10.92214171
   6.94831490  1.76659970  5.67075821
   6.92233690  1.80261620 10.87478971
   8.30000590  6.31638470  7.81368171
   8.27402790  6.35240120 13.01771321
 


--------------------------------------------------------------------------------------------------------


 k-point   1 :   0.0000 0.0000 0.0000  plane waves:   37103
 k-point   2 :   0.5000 0.0000 0.0000  plane waves:   37122
 k-point   3 :   0.0000 0.5000 0.0000  plane waves:   37062
 k-point   4 :   0.5000 0.5000 0.0000  plane waves:   37100
 k-point   5 :   0.0000 0.0000 0.5000  plane waves:   37096
 k-point   6 :   0.5000 0.0000 0.5000  plane waves:   37112
 k-point   7 :   0.0000 0.5000 0.5000  plane waves:   37076
 k-point   8 :   0.5000 0.5000 0.5000  plane waves:   37098

 maximum and minimum number of plane-waves per node :     37122    37062

 maximum number of plane-waves:     37122
 maximum index in each direction: 
   IXMAX=   22   IYMAX=   22   IZMAX=   22
   IXMIN=  -22   IYMIN=  -22   IZMIN=  -22


 serial   3D FFT for wavefunctions
 parallel 3D FFT for charge:
    minimum data exchange during FFTs selected (reduces bandwidth)


 total amount of memory used by VASP MPI-rank0  1873897. kBytes
=======================================================================

   base      :      30000. kBytes
   nonlr-proj:      51193. kBytes
   fftplans  :     200616. kBytes
   grid      :     358473. kBytes
   one-center:        368. kBytes
   wavefun   :    1233247. kBytes
 
     INWAV:  cpu time    0.0002: real time    0.0003
 Broyden mixing: mesh for mixing (old mesh)
   NGX = 45   NGY = 45   NGZ = 45
  (NGX  =180   NGY  =180   NGZ  =180)
  gives a total of  91125 points

 initial charge density was supplied:
 charge density of overlapping atoms calculated
 number of electron     384.0000000 magnetization 
 keeping initial charge density in first step


--------------------------------------------------------------------------------------------------------


 Maximum index for non-local projection operator          4985
 Maximum index for augmentation-charges         12518 (set IRDMAX)


--------------------------------------------------------------------------------------------------------


 First call to EWALD:  gamma=   0.185
 Maximum number of real-space cells 3x 3x 3
 Maximum number of reciprocal cells 3x 3x 3

    FEWALD:  cpu time    0.0780: real time    0.0780


--------------------------------------- Iteration      1(   1)  ---------------------------------------


    POTLOK:  cpu time    0.1546: real time    0.1547
    SETDIJ:  cpu time    0.1256: real time    0.1255
     EDDAV:  cpu time    7.5775: real time    7.5765
 BZINTS: Fermi energy:   17.317404;  384.000000 electrons
         Band energy: 0.156999E+04;  BLOECHL correction:   -0.023106
       DOS:  cpu time    0.0257: real time    0.0256
    --------------------------------------------
      LOOP:  cpu time    7.8834: real time    7.8823

 eigenvalue-minimisations  :  4048
 total energy-change (2. order) : 0.1521854E+04  (-0.2188822E+05)
 number of electron     384.0000000 magnetization 
 augmentation part      384.0000000 magnetization 

 Free energy of the ion-electron system (eV)
  ---------------------------------------------------
  alpha Z        PSCENC =      1172.74051251
  Ewald energy   TEWEN  =    -11584.48990699
  -Hartree energ DENC   =     -1081.65452238
  -exchange      EXHF   =         0.00000000
  -V(xc)+E(xc)   XCENC  =      1012.84153275
  PAW double counting   =      6780.51620165    -6712.07122612
  entropy T*S    EENTRO =         0.00000000
  eigenvalues    EBANDS =      1569.99449656
  atomic energy  EATOM  =     10363.97701633
  Solvation  Ediel_sol  =         0.00000000
  ---------------------------------------------------
  free energy    TOTEN  =      1521.85410431 eV

  energy without entropy =     1521.85410431  energy(sigma->0) =     1521.85410431


--------------------------------------------------------------------------------------------------------




--------------------------------------- Iteration      1(   2)  ---------------------------------------


     EDDAV:  cpu time    8.7545: real time    8.7514
 BZINTS: Fermi energy:    8.263790;  384.000000 electrons
         Band energy:-0.732484E+03;  BLOECHL correction:   -0.000000
       DOS:  cpu time    0.0222: real time    0.0221
    --------------------------------------------
      LOOP:  cpu time    8.7766: real time    8.7736

 eigenvalue-minimisations  :  4944
 total energy-change (2. order) :-0.2302478E+04  (-0.2165439E+04)
 number of electron     384.0000000 magnetization 
 augmentation part      384.0000000 magnetization 

 Free energy of the ion-electron system (eV)
  ---------------------------------------------------
  alpha Z        PSCENC =      1172.74051251
  Ewald energy   TEWEN  =    -11584.48990699
  -Hartree energ DENC   =     -1081.65452238
  -exchange      EXHF   =         0.00000000
  -V(xc)+E(xc)   XCENC  =      1012.84153275
  PAW double counting   =      6780.51620165    -6712.07122612
  entropy T*S    EENTRO =         0.00000000
  eigenvalues    EBANDS =      -732.48362900
  atomic energy  EATOM  =     10363.97701633
  Solvation  Ediel_sol  =         0.00000000
  ---------------------------------------------------
  free energy    TOTEN  =      -780.62402125 eV

  energy without entropy =     -780.62402125  energy(sigma->0) =     -780.62402125


--------------------------------------------------------------------------------------------------------




--------------------------------------- Iteration      1(   3)  ---------------------------------------


     EDDAV:  cpu time    8.7068: real time    8.7039
 BZINTS: Fermi energy:    7.659386;  384.000000 electrons
         Band energy:-0.878424E+03;  BLOECHL correction:    0.000000
       DOS:  cpu time    0.0234: real time    0.0234
    --------------------------------------------
      LOOP:  cpu time    8.7302: real time    8.7273

 eigenvalue-minimisations  :  4896
 total energy-change (2. order) :-0.1459403E+03  (-0.1437078E+03)
 number of electron     384.0000000 magnetization 
 augmentation part      384.0000000 magnetization 

 Free energy of the ion-electron system (eV)
  ---------------------------------------------------
  alpha Z        PSCENC =      1172.74051251
  Ewald energy   TEWEN  =    -11584.48990699
  -Hartree energ DENC   =     -1081.65452238
  -exchange      EXHF   =         0.00000000
  -V(xc)+E(xc)   XCENC  =      1012.84153275
  PAW double counting   =      6780.51620165    -6712.07122612
  entropy T*S    EENTRO =         0.00000000
  eigenvalues    EBANDS =      -878.42388822
  atomic energy  EATOM  =     10363.97701633
  Solvation  Ediel_sol  =         0.00000000
  ---------------------------------------------------
  free energy    TOTEN  =      -926.56428047 eV

  energy without entropy =     -926.56428047  energy(sigma->0) =     -926.56428047


--------------------------------------------------------------------------------------------------------




--------------------------------------- Iteration      1(   4)  ---------------------------------------


     EDDAV:  cpu time    8.6365: real time    8.6344
 BZINTS: Fermi energy:    7.622439;  384.000000 electrons
         Band energy:-0.881992E+03;  BLOECHL correction:   -0.000000
       DOS:  cpu time    0.0249: real time    0.0249
    --------------------------------------------
      LOOP:  cpu time    8.6614: real time    8.6592

 eigenvalue-minimisations  :  4840
 total energy-change (2. order) :-0.3568283E+01  (-0.3546505E+01)
 number of electron     384.0000000 magnetization 
 augmentation part      384.0000000 magnetization 

 Free energy of the ion-electron system (eV)
  ---------------------------------------------------
  alpha Z        PSCENC =      1172.74051251
  Ewald energy   TEWEN  =    -11584.48990699
  -Hartree energ DENC   =     -1081.65452238
  -exchange      EXHF   =         0.00000000
  -V(xc)+E(xc)   XCENC  =      1012.84153275
  PAW double counting   =      6780.51620165    -6712.07122612
  entropy T*S    EENTRO =         0.00000000
  eigenvalues    EBANDS =      -881.99217088
  atomic energy  EATOM  =     10363.97701633
  Solvation  Ediel_sol  =         0.00000000
  ---------------------------------------------------
  free energy    TOTEN  =      -930.13256313 eV

  energy without entropy =     -930.13256313  energy(sigma->0) =     -930.13256313


--------------------------------------------------------------------------------------------------------




--------------------------------------- Iteration      1(   5)  ---------------------------------------


     EDDAV:  cpu time    8.5366: real time    8.5339
 BZINTS: Fermi energy:    7.620559;  384.000000 electrons
         Band energy:-0.882093E+03;  BLOECHL correction:   -0.000000
       DOS:  cpu time    0.0245: real time    0.0244
    CHARGE:  cpu time    1.7799: real time    1.7789
    MIXING:  cpu time    0.0593: real time    0.0593
    --------------------------------------------
      LOOP:  cpu time   10.4003: real time   10.3965

 eigenvalue-minimisations  :  4784
 total energy-change (2. order) :-0.1010880E+00  (-0.1009056E+00)
 number of electron     384.0000002 magnetization 
 augmentation part        1.8959271 magnetization 

 Broyden mixing:
  rms(total) = 0.40221E+01    rms(broyden)= 0.40220E+01
  rms(prec ) = 0.54943E+01
  weight for this iteration     100.00

 Free energy of the ion-electron system (eV)
  ---------------------------------------------------
  alpha Z        PSCENC =      1172.74051251
  Ewald energy   TEWEN  =    -11584.48990699
  -Hartree energ DENC   =     -1081.65452238
  -exchange      EXHF   =         0.00000000
  -V(xc)+E(xc)   XCENC  =      1012.84153275
  PAW double counting   =      6780.51620165    -6712.07122612
  entropy T*S    EENTRO =         0.00000000
  eigenvalues    EBANDS =      -882.09325883
  atomic energy  EATOM  =     10363.97701633
  Solvation  Ediel_sol  =         0.00000000
  ---------------------------------------------------
  free energy    TOTEN  =      -930.23365108 eV

  energy without entropy =     -930.23365108  energy(sigma->0) =     -930.23365108


--------------------------------------------------------------------------------------------------------




--------------------------------------- Iteration      1(   6)  ---------------------------------------


    POTLOK:  cpu time    0.1497: real time    0.1502
    SETDIJ:  cpu time    0.1208: real time    0.1207
    EDDIAG:  cpu time    1.6389: real time    1.6382
  RMM-DIIS:  cpu time    6.6891: real time    6.6417
    ORTHCH:  cpu time    0.0472: real time    0.0472
 BZINTS: Fermi energy:    7.650465;  384.000000 electrons
         Band energy:-0.624387E+03;  BLOECHL correction:   -0.000000
       DOS:  cpu time    0.0243: real time    0.0243
    CHARGE:  cpu time    1.7489: real time    1.7481
    MIXING:  cpu time    0.0654: real time    0.0654
    --------------------------------------------
      LOOP:  cpu time   10.4842: real time   10.4358

 eigenvalue-minimisations  :  4048
 total energy-change (2. order) : 0.4444879E+02  (-0.6360916E+01)
 number of electron     384.0000003 magnetization 
 augmentation part        1.6163441 magnetization 

 Broyden mixing:
  rms(total) = 0.21557E+01    rms(broyden)= 0.21557E+01
  rms(prec ) = 0.27546E+01
  weight for this iteration     100.00

 eigenvalues of (default mixing * dielectric matrix)
  average eigenvalue GAMMA=   1.9051
  1.9051

 Free energy of the ion-electron system (eV)
  ---------------------------------------------------
  alpha Z        PSCENC =      1172.74051251
  Ewald energy   TEWEN  =    -11584.48990699
  -Hartree energ DENC   =     -1304.77574685
  -exchange      EXHF   =         0.00000000
  -V(xc)+E(xc)   XCENC  =      1028.47323884
  PAW double counting   =     14973.06985967   -14910.39258790
  entropy T*S    EENTRO =         0.00000000
  eigenvalues    EBANDS =      -624.38725023
  atomic energy  EATOM  =     10363.97701633
  Solvation  Ediel_sol  =         0.00000000
  ---------------------------------------------------
  free energy    TOTEN  =      -885.78486462 eV

  energy without entropy =     -885.78486462  energy(sigma->0) =     -885.78486462


--------------------------------------------------------------------------------------------------------




--------------------------------------- Iteration      1(   7)  ---------------------------------------


    POTLOK:  cpu time    0.1462: real time    0.1462
    SETDIJ:  cpu time    0.1205: real time    0.1205
    EDDIAG:  cpu time    1.6332: real time    1.6326
  RMM-DIIS:  cpu time    6.6781: real time    6.6349
    ORTHCH:  cpu time    0.0481: real time    0.0481
 BZINTS: Fermi energy:    7.788353;  384.000000 electrons
         Band energy:-0.419965E+03;  BLOECHL correction:    0.000000
       DOS:  cpu time    0.0264: real time    0.0264
    CHARGE:  cpu time    1.7436: real time    1.7428
    MIXING:  cpu time    0.0605: real time    0.0604
    --------------------------------------------
      LOOP:  cpu time   10.4567: real time   10.4118

 eigenvalue-minimisations  :  4048
 total energy-change (2. order) : 0.7972629E+01  (-0.5476400E+01)
 number of electron     384.0000003 magnetization 
 augmentation part        1.2788624 magnetization 

 Broyden mixing:
  rms(total) = 0.78610E+00    rms(broyden)= 0.78609E+00
  rms(prec ) = 0.94190E+00
  weight for this iteration     100.00

 eigenvalues of (default mixing * dielectric matrix)
  average eigenvalue GAMMA=   2.1931
  2.1931  2.1931

 Free energy of the ion-electron system (eV)
  ---------------------------------------------------
  alpha Z        PSCENC =      1172.74051251
  Ewald energy   TEWEN  =    -11584.48990699
  -Hartree energ DENC   =     -1512.12744984
  -exchange      EXHF   =         0.00000000
  -V(xc)+E(xc)   XCENC  =      1044.02333400
  PAW double counting   =     28272.61508826   -28214.58560930
  entropy T*S    EENTRO =         0.00000000
  eigenvalues    EBANDS =      -419.96522058
  atomic energy  EATOM  =     10363.97701633
  Solvation  Ediel_sol  =         0.00000000
  ---------------------------------------------------
  free energy    TOTEN  =      -877.81223563 eV

  energy without entropy =     -877.81223563  energy(sigma->0) =     -877.81223563


--------------------------------------------------------------------------------------------------------




--------------------------------------- Iteration      1(   8)  ---------------------------------------


    POTLOK:  cpu time    0.1385: real time    0.1386
    SETDIJ:  cpu time    0.1319: real time    0.1319
    EDDIAG:  cpu time    1.6366: real time    1.6361
  RMM-DIIS:  cpu time    6.6893: real time    6.6464
    ORTHCH:  cpu time    0.0472: real time    0.0472
 BZINTS: Fermi energy:    7.939576;  384.000000 electrons
         Band energy:-0.432543E+03;  BLOECHL correction:    0.000000
       DOS:  cpu time    0.0245: real time    0.0245
    CHARGE:  cpu time    1.7465: real time    1.7458
    MIXING:  cpu time    0.0630: real time    0.0630
    --------------------------------------------
      LOOP:  cpu time   10.4775: real time   10.4333

 eigenvalue-minimisations  :  4048
 total energy-change (2. order) : 0.4022592E+00  (-0.7375620E+00)
 number of electron     384.0000003 magnetization 
 augmentation part        1.2801561 magnetization 

 Broyden mixing:
  rms(total) = 0.25750E+00    rms(broyden)= 0.25749E+00
  rms(prec ) = 0.40624E+00
  weight for this iteration     100.00

 eigenvalues of (default mixing * dielectric matrix)
  average eigenvalue GAMMA=   1.7918
  2.5602  1.4076  1.4076

 Free energy of the ion-electron system (eV)
  ---------------------------------------------------
  alpha Z        PSCENC =      1172.74051251
  Ewald energy   TEWEN  =    -11584.48990699
  -Hartree energ DENC   =     -1499.71436623
  -exchange      EXHF   =         0.00000000
  -V(xc)+E(xc)   XCENC  =      1044.15679891
  PAW double counting   =     34254.86575778   -34196.40291433
  entropy T*S    EENTRO =         0.00000000
  eigenvalues    EBANDS =      -432.54287441
  atomic energy  EATOM  =     10363.97701633
  Solvation  Ediel_sol  =         0.00000000
  ---------------------------------------------------
  free energy    TOTEN  =      -877.40997643 eV

  energy without entropy =     -877.40997643  energy(sigma->0) =     -877.40997643


--------------------------------------------------------------------------------------------------------




--------------------------------------- Iteration      1(   9)  ---------------------------------------


    POTLOK:  cpu time    0.1390: real time    0.1390
    SETDIJ:  cpu time    0.1258: real time    0.1258
    EDDIAG:  cpu time    1.6377: real time    1.6373
  RMM-DIIS:  cpu time    6.6614: real time    6.6209
    ORTHCH:  cpu time    0.0476: real time    0.0476
 BZINTS: Fermi energy:    7.918867;  384.000000 electrons
         Band energy:-0.395907E+03;  BLOECHL correction:   -0.000000
       DOS:  cpu time    0.0251: real time    0.0251
    CHARGE:  cpu time    1.7600: real time    1.7592
    MIXING:  cpu time    0.0642: real time    0.0641
    --------------------------------------------
      LOOP:  cpu time   10.4609: real time   10.4190

 eigenvalue-minimisations  :  4048
 total energy-change (2. order) : 0.2990467E+00  (-0.2003076E+00)
 number of electron     384.0000003 magnetization 
 augmentation part        1.2467794 magnetization 

 Broyden mixing:
  rms(total) = 0.90421E-01    rms(broyden)= 0.90420E-01
  rms(prec ) = 0.12711E+00
  weight for this iteration     100.00

 eigenvalues of (default mixing * dielectric matrix)
  average eigenvalue GAMMA=   1.6566
  2.4646  0.9501  1.6058  1.6058

 Free energy of the ion-electron system (eV)
  ---------------------------------------------------
  alpha Z        PSCENC =      1172.74051251
  Ewald energy   TEWEN  =    -11584.48990699
  -Hartree energ DENC   =     -1538.13540357
  -exchange      EXHF   =         0.00000000
  -V(xc)+E(xc)   XCENC  =      1046.87739537
  PAW double counting   =     35374.28330629   -35316.45700778
  entropy T*S    EENTRO =         0.00000000
  eigenvalues    EBANDS =      -395.90684193
  atomic energy  EATOM  =     10363.97701633
  Solvation  Ediel_sol  =         0.00000000
  ---------------------------------------------------
  free energy    TOTEN  =      -877.11092978 eV

  energy without entropy =     -877.11092978  energy(sigma->0) =     -877.11092978


--------------------------------------------------------------------------------------------------------




--------------------------------------- Iteration      1(  10)  ---------------------------------------


    POTLOK:  cpu time    0.1451: real time    0.1451
    SETDIJ:  cpu time    0.1207: real time    0.1207
    EDDIAG:  cpu time    1.6354: real time    1.6347
  RMM-DIIS:  cpu time    6.8038: real time    6.7542
    ORTHCH:  cpu time    0.0470: real time    0.0469
 BZINTS: Fermi energy:    7.924031;  384.000000 electrons
         Band energy:-0.400578E+03;  BLOECHL correction:   -0.000000
       DOS:  cpu time    0.0252: real time    0.0252
    CHARGE:  cpu time    1.7505: real time    1.7497
    MIXING:  cpu time    0.0648: real time    0.0647
    --------------------------------------------
      LOOP:  cpu time   10.5925: real time   10.5412

 eigenvalue-minimisations  :  4132
 total energy-change (2. order) :-0.2853775E-02  (-0.2717973E-01)
 number of electron     384.0000003 magnetization 
 augmentation part        1.2292772 magnetization 

 Broyden mixing:
  rms(total) = 0.66054E-01    rms(broyden)= 0.66054E-01
  rms(prec ) = 0.90412E-01
  weight for this iteration     100.00

 eigenvalues of (default mixing * dielectric matrix)
  average eigenvalue GAMMA=   1.6686
  2.4811  2.4811  1.2001  1.0903  1.0903

 Free energy of the ion-electron system (eV)
  ---------------------------------------------------
  alpha Z        PSCENC =      1172.74051251
  Ewald energy   TEWEN  =    -11584.48990699
  -Hartree energ DENC   =     -1533.35757356
  -exchange      EXHF   =         0.00000000
  -V(xc)+E(xc)   XCENC  =      1046.57995774
  PAW double counting   =     35246.34344547   -35188.32946299
  entropy T*S    EENTRO =         0.00000000
  eigenvalues    EBANDS =      -400.57777206
  atomic energy  EATOM  =     10363.97701633
  Solvation  Ediel_sol  =         0.00000000
  ---------------------------------------------------
  free energy    TOTEN  =      -877.11378355 eV

  energy without entropy =     -877.11378355  energy(sigma->0) =     -877.11378355


--------------------------------------------------------------------------------------------------------




--------------------------------------- Iteration      1(  11)  ---------------------------------------


    POTLOK:  cpu time    0.1387: real time    0.1388
    SETDIJ:  cpu time    0.1227: real time    0.1226
    EDDIAG:  cpu time    1.6385: real time    1.6380
  RMM-DIIS:  cpu time    6.6379: real time    6.5912
    ORTHCH:  cpu time    0.0469: real time    0.0469
 BZINTS: Fermi energy:    7.935402;  384.000000 electrons
         Band energy:-0.404712E+03;  BLOECHL correction:   -0.000000
       DOS:  cpu time    0.0250: real time    0.0250
    CHARGE:  cpu time    1.7499: real time    1.7491
    MIXING:  cpu time    0.0695: real time    0.0695
    --------------------------------------------
      LOOP:  cpu time   10.4292: real time   10.3811

 eigenvalue-minimisations  :  4048
 total energy-change (2. order) : 0.9837090E-02  (-0.6530657E-02)
 number of electron     384.0000003 magnetization 
 augmentation part        1.2285035 magnetization 

 Broyden mixing:
  rms(total) = 0.13082E-01    rms(broyden)= 0.13082E-01
  rms(prec ) = 0.15618E-01
  weight for this iteration     100.00

 eigenvalues of (default mixing * dielectric matrix)
  average eigenvalue GAMMA=   1.6775
  2.7770  2.7770  1.3790  1.3790  0.8764  0.8764

 Free energy of the ion-electron system (eV)
  ---------------------------------------------------
  alpha Z        PSCENC =      1172.74051251
  Ewald energy   TEWEN  =    -11584.48990699
  -Hartree energ DENC   =     -1529.19128807
  -exchange      EXHF   =         0.00000000
  -V(xc)+E(xc)   XCENC  =      1046.35878520
  PAW double counting   =     35333.53203147   -35275.31940824
  entropy T*S    EENTRO =         0.00000000
  eigenvalues    EBANDS =      -404.71168866
  atomic energy  EATOM  =     10363.97701633
  Solvation  Ediel_sol  =         0.00000000
  ---------------------------------------------------
  free energy    TOTEN  =      -877.10394646 eV

  energy without entropy =     -877.10394646  energy(sigma->0) =     -877.10394646


--------------------------------------------------------------------------------------------------------




--------------------------------------- Iteration      1(  12)  ---------------------------------------


    POTLOK:  cpu time    0.1391: real time    0.1391
    SETDIJ:  cpu time    0.1208: real time    0.1207
    EDDIAG:  cpu time    1.6389: real time    1.6386
  RMM-DIIS:  cpu time    6.7486: real time    6.7009
    ORTHCH:  cpu time    0.0469: real time    0.0469
 BZINTS: Fermi energy:    7.936307;  384.000000 electrons
         Band energy:-0.405630E+03;  BLOECHL correction:    0.000000
       DOS:  cpu time    0.0253: real time    0.0253
    CHARGE:  cpu time    1.7489: real time    1.7480
    MIXING:  cpu time    0.0743: real time    0.0744
    --------------------------------------------
      LOOP:  cpu time   10.5427: real time   10.4938

 eigenvalue-minimisations  :  4103
 total energy-change (2. order) :-0.1553949E-02  (-0.9899549E-03)
 number of electron     384.0000003 magnetization 
 augmentation part        1.2287893 magnetization 

 Broyden mixing:
  rms(total) = 0.15043E-01    rms(broyden)= 0.15043E-01
  rms(prec ) = 0.20579E-01
  weight for this iteration     100.00

 eigenvalues of (default mixing * dielectric matrix)
  average eigenvalue GAMMA=   1.6108
  2.7901  2.7901  1.4925  1.4925  0.9392  0.9392  0.8321

 Free energy of the ion-electron system (eV)
  ---------------------------------------------------
  alpha Z        PSCENC =      1172.74051251
  Ewald energy   TEWEN  =    -11584.48990699
  -Hartree energ DENC   =     -1528.26505072
  -exchange      EXHF   =         0.00000000
  -V(xc)+E(xc)   XCENC  =      1046.30040259
  PAW double counting   =     35262.27915372   -35204.01756397
  entropy T*S    EENTRO =         0.00000000
  eigenvalues    EBANDS =      -405.63006388
  atomic energy  EATOM  =     10363.97701633
  Solvation  Ediel_sol  =         0.00000000
  ---------------------------------------------------
  free energy    TOTEN  =      -877.10550041 eV

  energy without entropy =     -877.10550041  energy(sigma->0) =     -877.10550041


--------------------------------------------------------------------------------------------------------




--------------------------------------- Iteration      1(  13)  ---------------------------------------


    POTLOK:  cpu time    0.1387: real time    0.1387
    SETDIJ:  cpu time    0.1215: real time    0.1215
    EDDIAG:  cpu time    1.6340: real time    1.6333
  RMM-DIIS:  cpu time    6.8591: real time    6.8105
    ORTHCH:  cpu time    0.0468: real time    0.0468
 BZINTS: Fermi energy:    7.935769;  384.000000 electrons
         Band energy:-0.404924E+03;  BLOECHL correction:   -0.000000
       DOS:  cpu time    0.0254: real time    0.0254
    CHARGE:  cpu time    1.7375: real time    1.7367
    MIXING:  cpu time    0.0663: real time    0.0662
    --------------------------------------------
      LOOP:  cpu time   10.6293: real time   10.5791

 eigenvalue-minimisations  :  4166
 total energy-change (2. order) : 0.5673045E-03  (-0.2496774E-03)
 number of electron     384.0000003 magnetization 
 augmentation part        1.2274591 magnetization 

 Broyden mixing:
  rms(total) = 0.62461E-02    rms(broyden)= 0.62461E-02
  rms(prec ) = 0.82733E-02
  weight for this iteration     100.00

 eigenvalues of (default mixing * dielectric matrix)
  average eigenvalue GAMMA=   1.6778
  2.8103  2.8103  2.1971  1.4627  1.0488  1.0488  1.0840  0.9605

 Free energy of the ion-electron system (eV)
  ---------------------------------------------------
  alpha Z        PSCENC =      1172.74051251
  Ewald energy   TEWEN  =    -11584.48990699
  -Hartree energ DENC   =     -1529.00246738
  -exchange      EXHF   =         0.00000000
  -V(xc)+E(xc)   XCENC  =      1046.35109261
  PAW double counting   =     35266.27775403   -35208.03469001
  entropy T*S    EENTRO =         0.00000000
  eigenvalues    EBANDS =      -404.92424420
  atomic energy  EATOM  =     10363.97701633
  Solvation  Ediel_sol  =         0.00000000
  ---------------------------------------------------
  free energy    TOTEN  =      -877.10493311 eV

  energy without entropy =     -877.10493311  energy(sigma->0) =     -877.10493311


--------------------------------------------------------------------------------------------------------




--------------------------------------- Iteration      1(  14)  ---------------------------------------


    POTLOK:  cpu time    0.1448: real time    0.1448
    SETDIJ:  cpu time    0.1206: real time    0.1205
    EDDIAG:  cpu time    1.6380: real time    1.6374
  RMM-DIIS:  cpu time    6.6363: real time    6.5928
    ORTHCH:  cpu time    0.0470: real time    0.0470
 BZINTS: Fermi energy:    7.934905;  384.000000 electrons
         Band energy:-0.404476E+03;  BLOECHL correction:    0.000000
       DOS:  cpu time    0.0249: real time    0.0249
    CHARGE:  cpu time    1.7411: real time    1.7404
    MIXING:  cpu time    0.0779: real time    0.0798
    --------------------------------------------
      LOOP:  cpu time   10.4305: real time   10.3876

 eigenvalue-minimisations  :  4052
 total energy-change (2. order) :-0.2402695E-04  (-0.1915354E-03)
 number of electron     384.0000003 magnetization 
 augmentation part        1.2257587 magnetization 

 Broyden mixing:
  rms(total) = 0.31330E-02    rms(broyden)= 0.31329E-02
  rms(prec ) = 0.43815E-02
  weight for this iteration     100.00

 eigenvalues of (default mixing * dielectric matrix)
  average eigenvalue GAMMA=   1.5977
  2.6092  2.6092  2.3657  1.5314  1.4389  1.0173  1.0173  0.9842  0.8058

 Free energy of the ion-electron system (eV)
  ---------------------------------------------------
  alpha Z        PSCENC =      1172.74051251
  Ewald energy   TEWEN  =    -11584.48990699
  -Hartree energ DENC   =     -1529.46526697
  -exchange      EXHF   =         0.00000000
  -V(xc)+E(xc)   XCENC  =      1046.38223890
  PAW double counting   =     35271.02786537   -35212.80093100
  entropy T*S    EENTRO =         0.00000000
  eigenvalues    EBANDS =      -404.47648529
  atomic energy  EATOM  =     10363.97701633
  Solvation  Ediel_sol  =         0.00000000
  ---------------------------------------------------
  free energy    TOTEN  =      -877.10495713 eV

  energy without entropy =     -877.10495713  energy(sigma->0) =     -877.10495713


--------------------------------------------------------------------------------------------------------




--------------------------------------- Iteration      1(  15)  ---------------------------------------


    POTLOK:  cpu time    0.1392: real time    0.1392
    SETDIJ:  cpu time    0.1204: real time    0.1203
    EDDIAG:  cpu time    1.6443: real time    1.6436
  RMM-DIIS:  cpu time    6.7404: real time    6.6949
    ORTHCH:  cpu time    0.0470: real time    0.0470
 BZINTS: Fermi energy:    7.935001;  384.000000 electrons
         Band energy:-0.404556E+03;  BLOECHL correction:   -0.000000
       DOS:  cpu time    0.0248: real time    0.0248
    CHARGE:  cpu time    1.7417: real time    1.7408
    MIXING:  cpu time    0.0903: real time    0.0903
    --------------------------------------------
      LOOP:  cpu time   10.5482: real time   10.5010

 eigenvalue-minimisations  :  4096
 total energy-change (2. order) : 0.2249094E-04  (-0.1689939E-04)
 number of electron     384.0000003 magnetization 
 augmentation part        1.2255671 magnetization 

 Broyden mixing:
  rms(total) = 0.18237E-02    rms(broyden)= 0.18237E-02
  rms(prec ) = 0.25222E-02
  weight for this iteration     100.00

 eigenvalues of (default mixing * dielectric matrix)
  average eigenvalue GAMMA=   1.5955
  2.7544  2.7544  2.3852  1.5745  1.5745  1.1136  1.1136  0.9295  0.8779  0.8779

 Free energy of the ion-electron system (eV)
  ---------------------------------------------------
  alpha Z        PSCENC =      1172.74051251
  Ewald energy   TEWEN  =    -11584.48990699
  -Hartree energ DENC   =     -1529.37958202
  -exchange      EXHF   =         0.00000000
  -V(xc)+E(xc)   XCENC  =      1046.37595113
  PAW double counting   =     35275.02571167   -35216.79877373
  entropy T*S    EENTRO =         0.00000000
  eigenvalues    EBANDS =      -404.55586354
  atomic energy  EATOM  =     10363.97701633
  Solvation  Ediel_sol  =         0.00000000
  ---------------------------------------------------
  free energy    TOTEN  =      -877.10493464 eV

  energy without entropy =     -877.10493464  energy(sigma->0) =     -877.10493464


--------------------------------------------------------------------------------------------------------




--------------------------------------- Iteration      1(  16)  ---------------------------------------


    POTLOK:  cpu time    0.1454: real time    0.1454
    SETDIJ:  cpu time    0.1209: real time    0.1209
    EDDIAG:  cpu time    1.6320: real time    1.6313
  RMM-DIIS:  cpu time    6.6529: real time    6.6114
    ORTHCH:  cpu time    0.0470: real time    0.0469
 BZINTS: Fermi energy:    7.934674;  384.000000 electrons
         Band energy:-0.404609E+03;  BLOECHL correction:    0.000000
       DOS:  cpu time    0.0244: real time    0.0244
    CHARGE:  cpu time    1.7381: real time    1.7372
    MIXING:  cpu time    0.0695: real time    0.0694
    --------------------------------------------
      LOOP:  cpu time   10.4303: real time   10.3870

 eigenvalue-minimisations  :  4044
 total energy-change (2. order) : 0.3027300E-05  (-0.5565275E-05)
 number of electron     384.0000003 magnetization 
 augmentation part        1.2255844 magnetization 

 Broyden mixing:
  rms(total) = 0.69006E-03    rms(broyden)= 0.69006E-03
  rms(prec ) = 0.92245E-03
  weight for this iteration     100.00

 eigenvalues of (default mixing * dielectric matrix)
  average eigenvalue GAMMA=   1.5607
  2.9698  2.5369  2.0845  1.6367  1.6367  1.2308  1.2308  1.0532  1.0532  0.9156
  0.8201

 Free energy of the ion-electron system (eV)
  ---------------------------------------------------
  alpha Z        PSCENC =      1172.74051251
  Ewald energy   TEWEN  =    -11584.48990699
  -Hartree energ DENC   =     -1529.32463304
  -exchange      EXHF   =         0.00000000
  -V(xc)+E(xc)   XCENC  =      1046.37241586
  PAW double counting   =     35275.12380858   -35216.89497419
  entropy T*S    EENTRO =         0.00000000
  eigenvalues    EBANDS =      -404.60917066
  atomic energy  EATOM  =     10363.97701633
  Solvation  Ediel_sol  =         0.00000000
  ---------------------------------------------------
  free energy    TOTEN  =      -877.10493162 eV

  energy without entropy =     -877.10493162  energy(sigma->0) =     -877.10493162


--------------------------------------------------------------------------------------------------------




--------------------------------------- Iteration      1(  17)  ---------------------------------------


    POTLOK:  cpu time    0.1383: real time    0.1383
    SETDIJ:  cpu time    0.1211: real time    0.1211
    EDDIAG:  cpu time    1.6338: real time    1.6331
  RMM-DIIS:  cpu time    6.5752: real time    6.5278
    ORTHCH:  cpu time    0.0470: real time    0.0470
 BZINTS: Fermi energy:    7.934783;  384.000000 electrons
[...]
   -.217E+02 -.562E+01 -.180E+02   0.230E+02 0.563E+01 0.185E+02   -.123E+01 -.122E-01 -.566E+00   -.202E-03 0.630E-04 0.126E-04
   -.217E+02 -.562E+01 -.180E+02   0.230E+02 0.563E+01 0.185E+02   -.123E+01 -.122E-01 -.566E+00   -.201E-03 0.630E-04 0.131E-04
   -.217E+02 -.562E+01 -.180E+02   0.230E+02 0.563E+01 0.185E+02   -.123E+01 -.122E-01 -.566E+00   -.202E-03 0.631E-04 0.126E-04
   -.217E+02 -.562E+01 -.180E+02   0.230E+02 0.563E+01 0.185E+02   -.123E+01 -.122E-01 -.566E+00   -.202E-03 0.629E-04 0.130E-04
   -.217E+02 -.562E+01 -.180E+02   0.230E+02 0.563E+01 0.185E+02   -.123E+01 -.122E-01 -.566E+00   -.202E-03 0.629E-04 0.127E-04
   -.217E+02 -.562E+01 -.180E+02   0.230E+02 0.563E+01 0.185E+02   -.123E+01 -.122E-01 -.566E+00   -.202E-03 0.630E-04 0.128E-04
   -.845E+01 -.449E+01 -.464E+02   0.835E+01 0.470E+01 0.508E+02   0.107E+00 -.211E+00 -.437E+01   0.401E-04 0.251E-04 0.627E-04
   -.845E+01 -.449E+01 -.464E+02   0.835E+01 0.470E+01 0.508E+02   0.107E+00 -.211E+00 -.437E+01   0.396E-04 0.251E-04 0.624E-04
   -.845E+01 -.449E+01 -.464E+02   0.835E+01 0.470E+01 0.508E+02   0.107E+00 -.211E+00 -.437E+01   0.397E-04 0.253E-04 0.624E-04
   -.845E+01 -.449E+01 -.464E+02   0.835E+01 0.470E+01 0.508E+02   0.107E+00 -.211E+00 -.437E+01   0.402E-04 0.253E-04 0.627E-04
   -.845E+01 -.449E+01 -.464E+02   0.835E+01 0.470E+01 0.508E+02   0.107E+00 -.211E+00 -.437E+01   0.399E-04 0.251E-04 0.624E-04
   -.845E+01 -.449E+01 -.464E+02   0.835E+01 0.470E+01 0.508E+02   0.107E+00 -.211E+00 -.437E+01   0.399E-04 0.252E-04 0.627E-04
   -.845E+01 -.449E+01 -.464E+02   0.835E+01 0.470E+01 0.508E+02   0.107E+00 -.211E+00 -.437E+01   0.396E-04 0.253E-04 0.629E-04
   -.845E+01 -.449E+01 -.464E+02   0.835E+01 0.470E+01 0.508E+02   0.107E+00 -.211E+00 -.437E+01   0.400E-04 0.252E-04 0.622E-04
   -.180E+02 -.360E+02 -.251E+02   0.190E+02 0.398E+02 0.270E+02   -.978E+00 -.380E+01 -.194E+01   0.571E-04 0.492E-04 0.831E-04
   -.180E+02 -.360E+02 -.251E+02   0.190E+02 0.398E+02 0.270E+02   -.978E+00 -.380E+01 -.194E+01   0.569E-04 0.493E-04 0.831E-04
   -.180E+02 -.360E+02 -.251E+02   0.190E+02 0.398E+02 0.270E+02   -.978E+00 -.380E+01 -.194E+01   0.572E-04 0.492E-04 0.829E-04
   -.180E+02 -.360E+02 -.251E+02   0.190E+02 0.398E+02 0.270E+02   -.978E+00 -.380E+01 -.194E+01   0.574E-04 0.491E-04 0.832E-04
   -.180E+02 -.360E+02 -.251E+02   0.190E+02 0.398E+02 0.270E+02   -.978E+00 -.380E+01 -.194E+01   0.571E-04 0.490E-04 0.828E-04
   -.180E+02 -.360E+02 -.251E+02   0.190E+02 0.398E+02 0.270E+02   -.978E+00 -.380E+01 -.194E+01   0.571E-04 0.496E-04 0.833E-04
   -.180E+02 -.360E+02 -.251E+02   0.190E+02 0.398E+02 0.270E+02   -.978E+00 -.380E+01 -.194E+01   0.570E-04 0.495E-04 0.832E-04
   -.180E+02 -.360E+02 -.251E+02   0.190E+02 0.398E+02 0.270E+02   -.978E+00 -.380E+01 -.194E+01   0.569E-04 0.489E-04 0.829E-04
   0.119E+01 -.198E+01 -.239E+01   -.599E+00 0.174E+01 0.229E+01   -.589E+00 0.245E+00 0.982E-01   -.311E-04 0.143E-04 -.142E-04
   0.119E+01 -.198E+01 -.239E+01   -.599E+00 0.174E+01 0.229E+01   -.589E+00 0.245E+00 0.982E-01   -.307E-04 0.147E-04 -.141E-04
   0.119E+01 -.198E+01 -.239E+01   -.599E+00 0.174E+01 0.229E+01   -.589E+00 0.245E+00 0.982E-01   -.309E-04 0.143E-04 -.140E-04
   0.119E+01 -.198E+01 -.239E+01   -.599E+00 0.174E+01 0.229E+01   -.589E+00 0.245E+00 0.982E-01   -.312E-04 0.142E-04 -.143E-04
   0.119E+01 -.198E+01 -.239E+01   -.599E+00 0.174E+01 0.229E+01   -.589E+00 0.245E+00 0.982E-01   -.314E-04 0.145E-04 -.141E-04
   0.119E+01 -.198E+01 -.239E+01   -.599E+00 0.174E+01 0.229E+01   -.589E+00 0.245E+00 0.982E-01   -.314E-04 0.147E-04 -.145E-04
   0.119E+01 -.198E+01 -.239E+01   -.599E+00 0.174E+01 0.229E+01   -.589E+00 0.245E+00 0.982E-01   -.313E-04 0.144E-04 -.139E-04
   0.119E+01 -.198E+01 -.239E+01   -.599E+00 0.174E+01 0.229E+01   -.589E+00 0.245E+00 0.982E-01   -.311E-04 0.147E-04 -.140E-04
   0.470E+02 0.738E+01 0.318E+02   -.538E+02 -.759E+01 -.352E+02   0.680E+01 0.217E+00 0.335E+01   0.483E-03 -.667E-05 0.190E-03
   0.470E+02 0.738E+01 0.318E+02   -.538E+02 -.759E+01 -.352E+02   0.680E+01 0.217E+00 0.335E+01   0.482E-03 -.633E-05 0.191E-03
   0.470E+02 0.738E+01 0.318E+02   -.538E+02 -.759E+01 -.352E+02   0.680E+01 0.217E+00 0.335E+01   0.482E-03 -.655E-05 0.191E-03
   0.470E+02 0.738E+01 0.318E+02   -.538E+02 -.759E+01 -.352E+02   0.680E+01 0.217E+00 0.335E+01   0.483E-03 -.674E-05 0.191E-03
   0.470E+02 0.738E+01 0.318E+02   -.538E+02 -.759E+01 -.352E+02   0.680E+01 0.217E+00 0.335E+01   0.482E-03 -.659E-05 0.191E-03
   0.470E+02 0.738E+01 0.318E+02   -.538E+02 -.759E+01 -.352E+02   0.680E+01 0.217E+00 0.335E+01   0.483E-03 -.637E-05 0.190E-03
   0.470E+02 0.738E+01 0.318E+02   -.538E+02 -.759E+01 -.352E+02   0.680E+01 0.217E+00 0.335E+01   0.482E-03 -.647E-05 0.191E-03
   0.470E+02 0.738E+01 0.318E+02   -.538E+02 -.759E+01 -.352E+02   0.680E+01 0.217E+00 0.335E+01   0.483E-03 -.659E-05 0.190E-03
   -.142E+02 -.121E+02 -.243E+02   0.160E+02 0.145E+02 0.285E+02   -.174E+01 -.238E+01 -.428E+01   -.864E-04 0.506E-04 0.336E-04
   -.142E+02 -.121E+02 -.243E+02   0.160E+02 0.145E+02 0.285E+02   -.174E+01 -.238E+01 -.428E+01   -.865E-04 0.505E-04 0.329E-04
   -.142E+02 -.121E+02 -.243E+02   0.160E+02 0.145E+02 0.285E+02   -.174E+01 -.238E+01 -.428E+01   -.866E-04 0.501E-04 0.330E-04
   -.142E+02 -.121E+02 -.243E+02   0.160E+02 0.145E+02 0.285E+02   -.174E+01 -.238E+01 -.428E+01   -.864E-04 0.503E-04 0.332E-04
   -.142E+02 -.121E+02 -.243E+02   0.160E+02 0.145E+02 0.285E+02   -.174E+01 -.238E+01 -.428E+01   -.871E-04 0.505E-04 0.330E-04
   -.142E+02 -.121E+02 -.243E+02   0.160E+02 0.145E+02 0.285E+02   -.174E+01 -.238E+01 -.428E+01   -.868E-04 0.508E-04 0.333E-04
   -.142E+02 -.121E+02 -.243E+02   0.160E+02 0.145E+02 0.285E+02   -.174E+01 -.238E+01 -.428E+01   -.868E-04 0.503E-04 0.335E-04
   -.142E+02 -.121E+02 -.243E+02   0.160E+02 0.145E+02 0.285E+02   -.174E+01 -.238E+01 -.428E+01   -.870E-04 0.505E-04 0.326E-04
   0.195E+02 0.117E+02 0.259E+02   -.218E+02 -.143E+02 -.308E+02   0.228E+01 0.262E+01 0.488E+01   -.373E-04 -.162E-04 -.235E-03
   0.195E+02 0.117E+02 0.259E+02   -.218E+02 -.143E+02 -.308E+02   0.228E+01 0.262E+01 0.488E+01   -.371E-04 -.159E-04 -.235E-03
   0.195E+02 0.117E+02 0.259E+02   -.218E+02 -.143E+02 -.308E+02   0.228E+01 0.262E+01 0.488E+01   -.370E-04 -.160E-04 -.235E-03
   0.195E+02 0.117E+02 0.259E+02   -.218E+02 -.143E+02 -.308E+02   0.228E+01 0.262E+01 0.488E+01   -.375E-04 -.160E-04 -.235E-03
   0.195E+02 0.117E+02 0.259E+02   -.218E+02 -.143E+02 -.308E+02   0.228E+01 0.262E+01 0.488E+01   -.376E-04 -.157E-04 -.235E-03
   0.195E+02 0.117E+02 0.259E+02   -.218E+02 -.143E+02 -.308E+02   0.228E+01 0.262E+01 0.488E+01   -.376E-04 -.157E-04 -.235E-03
   0.195E+02 0.117E+02 0.259E+02   -.218E+02 -.143E+02 -.308E+02   0.228E+01 0.262E+01 0.488E+01   -.381E-04 -.161E-04 -.235E-03
   0.195E+02 0.117E+02 0.259E+02   -.218E+02 -.143E+02 -.308E+02   0.228E+01 0.262E+01 0.488E+01   -.376E-04 -.158E-04 -.235E-03
 -----------------------------------------------------------------------------------------------
   -.634E+01 -.781E+01 -.144E+02   0.306E-12 -.515E-12 0.497E-13   0.629E+01 0.782E+01 0.143E+02   0.646E-04 -.112E-03 -.133E-02
 
 
 POSITION                                       TOTAL-FORCE (eV/Angst)
 -----------------------------------------------------------------------------------
      2.50625      3.74475      6.63861         0.000333      0.000243      0.000857
      2.47159      3.79629     11.86667         0.000333      0.000243      0.000857
      3.83709      8.31458      8.80252         0.000333      0.000243      0.000857
      3.80243      8.36611     14.03058         0.000333      0.000243      0.000857
      7.13103      3.76957      8.73602         0.000333      0.000243      0.000857
      7.09637      3.82110     13.96409         0.000333      0.000243      0.000857
      8.46187      8.33939     10.89993         0.000333      0.000243      0.000857
      8.42721      8.39092     16.12800         0.000333      0.000243      0.000857
      4.77014      3.70478      5.07195        -0.000175     -0.000504     -0.000211
      4.73547      3.75631     10.30002        -0.000175     -0.000504     -0.000211
      6.10097      8.27460      7.23586        -0.000175     -0.000504     -0.000211
      6.06631      8.32613     12.46393        -0.000175     -0.000504     -0.000211
      9.39492      3.72959      7.16937        -0.000175     -0.000504     -0.000211
      9.36025      3.78112     12.39743        -0.000175     -0.000504     -0.000211
     10.72575      8.29941      9.33328        -0.000175     -0.000504     -0.000211
     10.69109      8.35094     14.56134        -0.000175     -0.000504     -0.000211
      4.10516      1.50443      6.56413        -0.000162      0.000056     -0.000376
      4.07049      1.55596     11.79219        -0.000162      0.000056     -0.000376
      5.43599      6.07426      8.72804        -0.000162      0.000056     -0.000376
      5.40133      6.12579     13.95610        -0.000162      0.000056     -0.000376
      8.72994      1.52925      8.66155        -0.000162      0.000056     -0.000376
      8.69527      1.58078     13.88961        -0.000162      0.000056     -0.000376
     10.06077      6.09907     10.82546        -0.000162      0.000056     -0.000376
     10.02611      6.15060     16.05352        -0.000162      0.000056     -0.000376
      3.41333      0.90391      2.85387        -0.000439      0.000395     -0.000299
      3.37867      0.95544      8.08193        -0.000439      0.000395     -0.000299
      4.74417      5.47373      5.01778        -0.000439      0.000395     -0.000299
      4.70950      5.52526     10.24584        -0.000439      0.000395     -0.000299
      8.03811      0.92872      4.95129        -0.000439      0.000395     -0.000299
      8.00345      0.98025     10.17935        -0.000439      0.000395     -0.000299
      9.36895      5.49854      7.11520        -0.000439      0.000395     -0.000299
      9.33428      5.55007     12.34326        -0.000439      0.000395     -0.000299
      1.15290      0.93260      4.42946        -0.000410     -0.000342     -0.000013
      1.11824      0.98413      9.65752        -0.000410     -0.000342     -0.000013
      2.48374      5.50243      6.59337        -0.000410     -0.000342     -0.000013
      2.44907      5.55396     11.82143        -0.000410     -0.000342     -0.000013
      5.77768      0.95742      6.52688        -0.000410     -0.000342     -0.000013
      5.74302      1.00895     11.75494        -0.000410     -0.000342     -0.000013
      7.10852      5.52724      8.69079        -0.000410     -0.000342     -0.000013
      7.07385      5.57877     13.91885        -0.000410     -0.000342     -0.000013
      1.82422      3.15396      2.92299         0.000164      0.000324      0.000008
      1.78956      3.20549      8.15105         0.000164      0.000324      0.000008
      3.15506      7.72379      5.08690         0.000164      0.000324      0.000008
      3.12040      7.77532     10.31496         0.000164      0.000324      0.000008
      6.44900      3.17878      5.02041         0.000164      0.000324      0.000008
      6.41434      3.23031     10.24847         0.000164      0.000324      0.000008
      7.77984      7.74860      7.18432         0.000164      0.000324      0.000008
      7.74518      7.80013     12.41238         0.000164      0.000324      0.000008
      5.87375      4.61259      7.75582         0.000510     -0.000165     -0.000577
      5.83909      4.66412     12.98389         0.000510     -0.000165     -0.000577
      7.20459      9.18241      9.91973         0.000510     -0.000165     -0.000577
      7.16993      9.23394     15.14780         0.000510     -0.000165     -0.000577
     10.49853      4.63740      9.85324         0.000510     -0.000165     -0.000577
     10.46387      4.68893     15.08131         0.000510     -0.000165     -0.000577
     11.82937      9.20723     12.01715         0.000510     -0.000165     -0.000577
     11.79471      9.25876     17.24521         0.000510     -0.000165     -0.000577
      5.43431      3.15849      8.74194         0.000393     -0.000169     -0.000399
      5.39965      3.21002     13.97000         0.000393     -0.000169     -0.000399
      6.76515      7.72832     10.90585         0.000393     -0.000169     -0.000399
      6.73048      7.77985     16.13391         0.000393     -0.000169     -0.000399
     10.05909      3.18331     10.83935         0.000393     -0.000169     -0.000399
     10.02443      3.23484     16.06742         0.000393     -0.000169     -0.000399
     11.38993      7.75313     13.00326         0.000393     -0.000169     -0.000399
     11.35526      7.80466     18.23133         0.000393     -0.000169     -0.000399
      1.58546      0.03877      0.76366         0.000272     -0.000049      0.000163
      1.55079      0.09030      5.99172         0.000272     -0.000049      0.000163
      2.91629      4.60859      2.92757         0.000272     -0.000049      0.000163
      2.88163      4.66013      8.15563         0.000272     -0.000049      0.000163
      6.21024      0.06358      2.86108         0.000272     -0.000049      0.000163
      6.17557      0.11512      8.08914         0.000272     -0.000049      0.000163
      7.54107      4.63341      5.02499         0.000272     -0.000049      0.000163
      7.50641      4.68494     10.25305         0.000272     -0.000049      0.000163
      0.03237      0.03825      1.74882         0.000090     -0.000157      0.000135
     -0.00230      0.08978      6.97688         0.000090     -0.000157      0.000135
      1.36320      4.60808      3.91273         0.000090     -0.000157      0.000135
      1.32854      4.65961      9.14079         0.000090     -0.000157      0.000135
      4.65714      0.06307      3.84624         0.000090     -0.000157      0.000135
      4.62248      0.11460      9.07430         0.000090     -0.000157      0.000135
      5.98798      4.63289      6.01015         0.000090     -0.000157      0.000135
      5.95332      4.68442     11.23821         0.000090     -0.000157      0.000135
      0.47576      1.50544      0.75381         0.000106     -0.000195      0.000231
      0.44110      1.55697      5.98188         0.000106     -0.000195      0.000231
      1.80660      6.07527      2.91772         0.000106     -0.000195      0.000231
      1.77193      6.12680      8.14579         0.000106     -0.000195      0.000231
      5.10054      1.53026      2.85123         0.000106     -0.000195      0.000231
      5.06587      1.58179      8.07930         0.000106     -0.000195      0.000231
      6.43138      6.10008      5.01514         0.000106     -0.000195      0.000231
      6.39671      6.15161     10.24320         0.000106     -0.000195      0.000231
      2.92520      2.31387      4.71538        -0.000561      0.000397      0.000205
      2.89053      2.36540      9.94345        -0.000561      0.000397      0.000205
      4.25604      6.88369      6.87929        -0.000561      0.000397      0.000205
      4.22137      6.93522     12.10736        -0.000561      0.000397      0.000205
      7.54998      2.33868      6.81280        -0.000561      0.000397      0.000205
      7.51531      2.39021     12.04086        -0.000561      0.000397      0.000205
      8.88081      6.90851      8.97671        -0.000561      0.000397      0.000205
      8.84615      6.96004     14.20477        -0.000561      0.000397      0.000205
      4.42920      4.61782      8.78284         0.000189     -0.000111      0.000144
      4.39454      4.66935     14.01090         0.000189     -0.000111      0.000144
      5.76004      9.18765     10.94675         0.000189     -0.000111      0.000144
      5.72538      9.23918     16.17481         0.000189     -0.000111      0.000144
      9.05398      4.64264     10.88026         0.000189     -0.000111      0.000144
      9.01932      4.69417     16.10832         0.000189     -0.000111      0.000144
     10.38482      9.21246     13.04417         0.000189     -0.000111      0.000144
     10.35015      9.26399     18.27223         0.000189     -0.000111      0.000144
      3.61288      2.87655      5.85150         0.000183      0.000184      0.000064
      3.57821      2.92808     11.07956         0.000183      0.000184      0.000064
      4.94371      7.44637      8.01541         0.000183      0.000184      0.000064
      4.90905      7.49790     13.24347         0.000183      0.000184      0.000064
      8.23766      2.90136      7.94892         0.000183      0.000184      0.000064
      8.20299      2.95289     13.17698         0.000183      0.000184      0.000064
      9.56849      7.47119     10.11283         0.000183      0.000184      0.000064
      9.53383      7.52272     15.34089         0.000183      0.000184      0.000064
      2.26622      1.74007      3.57566        -0.000494      0.000091      0.000067
      2.23156      1.79160      8.80373        -0.000494      0.000091      0.000067
      3.59706      6.30989      5.73957        -0.000494      0.000091      0.000067
      3.56239      6.36142     10.96764        -0.000494      0.000091      0.000067
      6.89100      1.76488      5.67308        -0.000494      0.000091      0.000067
      6.85634      1.81641     10.90114        -0.000494      0.000091      0.000067
      8.22184      6.33470      7.83699        -0.000494      0.000091      0.000067
      8.18717      6.38623     13.06505        -0.000494      0.000091      0.000067
 -----------------------------------------------------------------------------------
    total drift:                               -0.055013      0.006874     -0.012363


--------------------------------------------------------------------------------------------------------



  FREE ENERGIE OF THE ION-ELECTRON SYSTEM (eV)
  ---------------------------------------------------
  free  energy   TOTEN  =      -877.30819195 eV

  energy  without entropy=     -877.30819195  energy(sigma->0) =     -877.30819195
 
 d Force = 0.4089714E-06[ 0.185E-06, 0.633E-06]  d Energy = 0.6455957E-06-0.237E-06
 d Force = 0.6043494E-02[ 0.604E-02, 0.604E-02]  d Ewald  = 0.5779911E-02 0.264E-03


--------------------------------------------------------------------------------------------------------


    POTLOK:  cpu time    0.2820: real time    0.2820


--------------------------------------------------------------------------------------------------------




--------------------------------------------------------------------------------------------------------


  
 reached required accuracy - stopping structural energy minimisation
     LOOP+:  cpu time   31.2425: real time   31.2227
    4ORBIT:  cpu time    0.0000: real time    0.0000
 BZINTS: Fermi energy:    7.884524;  384.000000 electrons
         Band energy:-0.404989E+03;  BLOECHL correction:    0.000000

 total amount of memory used by VASP MPI-rank0  1873897. kBytes
=======================================================================

   base      :      30000. kBytes
   nonlr-proj:      51193. kBytes
   fftplans  :     200616. kBytes
   grid      :     358473. kBytes
   one-center:        368. kBytes
   wavefun   :    1233247. kBytes
 
  
  
 General timing and accounting informations for this job:
 ========================================================
  
                  Total CPU time used (sec):     1840.578
                            User time (sec):     1464.529
                          System time (sec):      376.049
                         Elapsed time (sec):     1836.406
  
                   Maximum memory used (kb):     3896976.
                   Average memory used (kb):          N/A
  
                          Minor page faults:     22780030
                          Major page faults:            0
                 Voluntary context switches:       391889
