[1652808249.746342] [c1006a-s11:246066:0]    ucp_context.c:1075 UCX  ERROR exceeded transports/devices limit (78 requested, up to 64 are supported)
 running on    1 total cores
 distrk:  each k-point on    1 cores,    1 groups
 distr:  one band on    1 cores,    1 groups
 OpenACC runtime initialized ...    1 GPUs detected
 vasp.6.2.0 18Jan21 (build Feb 25 2021 07:51:20) complex                         
 POSCAR found type information on POSCAR B C 
 POSCAR found :  2 types and     120 ions
 scaLAPACK will be used selectively (only on CPU)
 LDA part: xc-table for Pade appr. of Perdew
 -----------------------------------------------------------------------------
|                                                                             |
|           W    W    AA    RRRRR   N    N  II  N    N   GGGG   !!!           |
|           W    W   A  A   R    R  NN   N  II  NN   N  G    G  !!!           |
|           W    W  A    A  R    R  N N  N  II  N N  N  G       !!!           |
|           W WW W  AAAAAA  RRRRR   N  N N  II  N  N N  G  GGG   !            |
|           WW  WW  A    A  R   R   N   NN  II  N   NN  G    G                |
|           W    W  A    A  R    R  N    N  II  N    N   GGGG   !!!           |
|                                                                             |
|     The requested file  could not be found or opened for reading            |
|     k-point information. Automatic k-point generation is used as a          |
|     fallback, which may lead to unwanted results.                           |
|                                                                             |
 -----------------------------------------------------------------------------

 POSCAR, INCAR and KPOINTS ok, starting setup
 FFT: planning ...
 WAVECAR not read
 entering main loop
       N       E                     dE             d eps       ncg     rms          rms(c)
DAV:   1     0.152185410431E+04    0.15219E+04   -0.21888E+05  4048   0.179E+03
DAV:   2    -0.780624021255E+03   -0.23025E+04   -0.21654E+04  4944   0.313E+02
DAV:   3    -0.926564280469E+03   -0.14594E+03   -0.14371E+03  4896   0.699E+01
DAV:   4    -0.930132563131E+03   -0.35683E+01   -0.35465E+01  4840   0.112E+01
DAV:   5    -0.930233651082E+03   -0.10109E+00   -0.10091E+00  4784   0.181E+00    0.402E+01
RMM:   6    -0.885784864616E+03    0.44449E+02   -0.63609E+01  4048   0.116E+01    0.216E+01
RMM:   7    -0.877812235625E+03    0.79726E+01   -0.54764E+01  4048   0.112E+01    0.786E+00
RMM:   8    -0.877409976429E+03    0.40226E+00   -0.73756E+00  4048   0.449E+00    0.257E+00
RMM:   9    -0.877110929778E+03    0.29905E+00   -0.20031E+00  4048   0.223E+00    0.904E-01
RMM:  10    -0.877113783553E+03   -0.28538E-02   -0.27180E-01  4132   0.943E-01    0.661E-01
RMM:  11    -0.877103946463E+03    0.98371E-02   -0.65307E-02  4048   0.447E-01    0.131E-01
RMM:  12    -0.877105500412E+03   -0.15539E-02   -0.98995E-03  4103   0.183E-01    0.150E-01
RMM:  13    -0.877104933107E+03    0.56730E-03   -0.24968E-03  4166   0.792E-02    0.625E-02
RMM:  14    -0.877104957134E+03   -0.24027E-04   -0.19154E-03  4052   0.661E-02    0.313E-02
RMM:  15    -0.877104934643E+03    0.22491E-04   -0.16899E-04  4096   0.268E-02    0.182E-02
RMM:  16    -0.877104931616E+03    0.30273E-05   -0.55653E-05  4044   0.120E-02    0.690E-03
RMM:  17    -0.877104932857E+03   -0.12409E-05   -0.11145E-05  3990   0.575E-03    0.304E-03
RMM:  18    -0.877104934428E+03   -0.15706E-05   -0.54275E-06  3353   0.362E-03    0.119E-03
RMM:  19    -0.877104934402E+03    0.26062E-07   -0.76338E-07  2501   0.162E-03
   1 F= -.87710493E+03 E0= -.87710493E+03  d E =-.877105E+03
 curvature:   0.00 expect dE= 0.000E+00 dE for cont linesearch  0.000E+00
 trial: gam= 0.00000 g(F)=  0.242E+00 g(S)=  0.245E+00 ort = 0.000E+00 (trialstep = 0.100E+01)
 search vector abs. value=  0.487E+00
 bond charge predicted
       N       E                     dE             d eps       ncg     rms          rms(c)
DAV:   1    -0.877145882200E+03   -0.40948E-01   -0.27409E+01  4464   0.112E+01    0.194E+00
RMM:   2    -0.877100954037E+03    0.44928E-01   -0.71122E-01  4048   0.170E+00    0.114E+00
RMM:   3    -0.877068685581E+03    0.32268E-01   -0.19214E-01  4048   0.787E-01    0.315E-01
RMM:   4    -0.877070054138E+03   -0.13686E-02   -0.24189E-02  4089   0.312E-01    0.216E-01
RMM:   5    -0.877070290145E+03   -0.23601E-03   -0.55989E-03  4078   0.141E-01    0.548E-02
RMM:   6    -0.877070330957E+03   -0.40813E-04   -0.14870E-03  4131   0.683E-02    0.597E-02
RMM:   7    -0.877070352755E+03   -0.21797E-04   -0.31822E-04  4084   0.335E-02    0.953E-03
RMM:   8    -0.877070354004E+03   -0.12498E-05   -0.80124E-05  4111   0.158E-02    0.118E-02
RMM:   9    -0.877070356088E+03   -0.20832E-05   -0.20436E-05  4169   0.796E-03    0.292E-03
RMM:  10    -0.877070356260E+03   -0.17231E-06   -0.43030E-06  3112   0.362E-03
   2 F= -.87707036E+03 E0= -.87707036E+03  d E =0.345781E-01
 trial-energy change:    0.034578  1 .order    0.032762   -0.487110    0.552634
 step:   0.4659(harm=  0.4685)  dis= 0.00697  next Energy=  -877.218219 (dE=-0.113E+00)
 bond charge predicted
       N       E                     dE             d eps       ncg     rms          rms(c)
DAV:   1    -0.877240873211E+03   -0.17052E+00   -0.78159E+00  4368   0.595E+00    0.103E+00
RMM:   2    -0.877226923113E+03    0.13950E-01   -0.19718E-01  4048   0.901E-01    0.609E-01
RMM:   3    -0.877217666639E+03    0.92565E-02   -0.55970E-02  4048   0.423E-01    0.153E-01
RMM:   4    -0.877218039445E+03   -0.37281E-03   -0.65827E-03  4080   0.166E-01    0.104E-01
RMM:   5    -0.877218100058E+03   -0.60614E-04   -0.16130E-03  4064   0.758E-02    0.253E-02
RMM:   6    -0.877218106803E+03   -0.67445E-05   -0.41519E-04  4121   0.364E-02    0.273E-02
RMM:   7    -0.877218111850E+03   -0.50470E-05   -0.95891E-05  4085   0.182E-02    0.564E-03
RMM:   8    -0.877218112075E+03   -0.22499E-06   -0.21874E-05  4103   0.832E-03    0.557E-03
RMM:   9    -0.877218112429E+03   -0.35408E-06   -0.58912E-06  3482   0.430E-03
   3 F= -.87721811E+03 E0= -.87721811E+03  d E =-.113178E+00
 curvature:  -0.23 expect dE=-0.559E-01 dE for cont linesearch -0.181E-07
 trial: gam= 0.49061 g(F)=  0.194E+00 g(S)=  0.452E-01 ort =-0.194E-03 (trialstep = 0.893E+00)
 search vector abs. value=  0.356E+00
 bond charge predicted
       N       E                     dE             d eps       ncg     rms          rms(c)
DAV:   1    -0.877215969375E+03    0.21427E-02   -0.10606E+01  4304   0.691E+00    0.146E+00
RMM:   2    -0.877194264955E+03    0.21704E-01   -0.33480E-01  4048   0.119E+00    0.878E-01
RMM:   3    -0.877178216640E+03    0.16048E-01   -0.10585E-01  4048   0.566E-01    0.181E-01
RMM:   4    -0.877178972773E+03   -0.75613E-03   -0.12404E-02  4087   0.224E-01    0.122E-01
RMM:   5    -0.877179044048E+03   -0.71275E-04   -0.34845E-03  4062   0.107E-01    0.374E-02
RMM:   6    -0.877179008537E+03    0.35511E-04   -0.77638E-04  4109   0.503E-02    0.247E-02
RMM:   7    -0.877179021287E+03   -0.12750E-04   -0.21164E-04  4104   0.249E-02    0.775E-03
RMM:   8    -0.877179020811E+03    0.47663E-06   -0.37324E-05  4075   0.110E-02    0.600E-03
RMM:   9    -0.877179022072E+03   -0.12615E-05   -0.11917E-05  4039   0.585E-03    0.290E-03
RMM:  10    -0.877179021770E+03    0.30195E-06   -0.28476E-06  2824   0.290E-03
   4 F= -.87717902E+03 E0= -.87717902E+03  d E =0.390907E-01
 trial-energy change:    0.039091  1 .order    0.038828   -0.213194    0.290849
 step:   0.3778(harm=  0.3778)  dis= 0.00345  next Energy=  -877.263199 (dE=-0.451E-01)
 bond charge predicted
       N       E                     dE             d eps       ncg     rms          rms(c)
DAV:   1    -0.877275595858E+03   -0.96574E-01   -0.35332E+00  4232   0.399E+00    0.844E-01
RMM:   2    -0.877268218854E+03    0.73770E-02   -0.11168E-01  4048   0.689E-01    0.507E-01
RMM:   3    -0.877262886322E+03    0.53325E-02   -0.35230E-02  4048   0.327E-01    0.107E-01
RMM:   4    -0.877263138346E+03   -0.25202E-03   -0.41362E-03  4089   0.130E-01    0.723E-02
RMM:   5    -0.877263165823E+03   -0.27477E-04   -0.11606E-03  4067   0.619E-02    0.220E-02
RMM:   6    -0.877263152416E+03    0.13406E-04   -0.26111E-04  4091   0.292E-02    0.152E-02
RMM:   7    -0.877263156808E+03   -0.43918E-05   -0.73358E-05  4110   0.146E-02    0.486E-03
RMM:   8    -0.877263156410E+03    0.39831E-06   -0.12892E-05  4059   0.645E-03    0.363E-03
RMM:   9    -0.877263156743E+03   -0.33299E-06   -0.41574E-06  3068   0.346E-03
   5 F= -.87726316E+03 E0= -.87726316E+03  d E =-.450443E-01
 curvature:  -0.28 expect dE=-0.146E-01 dE for cont linesearch -0.132E-06
 trial: gam= 0.21297 g(F)=  0.472E-01 g(S)=  0.468E-02 ort =-0.409E-03 (trialstep = 0.790E+00)
 search vector abs. value=  0.678E-01
 bond charge predicted
       N       E                     dE             d eps       ncg     rms          rms(c)
DAV:   1    -0.877289816766E+03   -0.26660E-01   -0.22586E+00  4232   0.324E+00    0.403E-01
RMM:   2    -0.877288230284E+03    0.15865E-02   -0.38788E-02  4048   0.413E-01    0.223E-01
RMM:   3    -0.877287454450E+03    0.77583E-03   -0.10711E-02  4048   0.183E-01    0.720E-02
RMM:   4    -0.877287524325E+03   -0.69875E-04   -0.13510E-03  4106   0.738E-02    0.459E-02
RMM:   5    -0.877287543635E+03   -0.19310E-04   -0.36724E-04  4114   0.353E-02    0.133E-02
RMM:   6    -0.877287547253E+03   -0.36187E-05   -0.76351E-05  4152   0.155E-02    0.977E-03
RMM:   7    -0.877287548139E+03   -0.88538E-06   -0.15416E-05  4067   0.729E-03    0.146E-03
RMM:   8    -0.877287548444E+03   -0.30502E-06   -0.33590E-06  2973   0.327E-03
   6 F= -.87728755E+03 E0= -.87728755E+03  d E =-.243917E-01
 trial-energy change:   -0.024392  1 .order   -0.024350   -0.040908   -0.007792
 step:   0.9760(harm=  0.9760)  dis= 0.00336  next Energy=  -877.288424 (dE=-0.253E-01)
 bond charge predicted
       N       E                     dE             d eps       ncg     rms          rms(c)
DAV:   1    -0.877288577380E+03   -0.10292E-02   -0.12513E-01  4560   0.762E-01    0.952E-02
RMM:   2    -0.877288490694E+03    0.86686E-04   -0.21624E-03  4048   0.975E-02    0.526E-02
RMM:   3    -0.877288448940E+03    0.41754E-04   -0.59409E-04  4048   0.432E-02    0.173E-02
RMM:   4    -0.877288452876E+03   -0.39360E-05   -0.75582E-05  4113   0.174E-02    0.110E-02
RMM:   5    -0.877288453837E+03   -0.96123E-06   -0.20292E-05  4077   0.832E-03    0.318E-03
RMM:   6    -0.877288453982E+03   -0.14420E-06   -0.43080E-06  3201   0.368E-03
   7 F= -.87728845E+03 E0= -.87728845E+03  d E =-.252972E-01
 curvature:  -0.64 expect dE=-0.207E-01 dE for cont linesearch -0.579E-08
 trial: gam= 0.62009 g(F)=  0.279E-01 g(S)=  0.449E-02 ort =-0.248E-04 (trialstep = 0.827E+00)
 search vector abs. value=  0.584E-01
 bond charge predicted
       N       E                     dE             d eps       ncg     rms          rms(c)
DAV:   1    -0.877304033889E+03   -0.15580E-01   -0.24591E+00  4172   0.337E+00    0.390E-01
RMM:   2    -0.877303277436E+03    0.75645E-03   -0.36206E-02  4048   0.405E-01    0.221E-01
RMM:   3    -0.877302752594E+03    0.52484E-03   -0.87345E-03  4048   0.169E-01    0.750E-02
RMM:   4    -0.877302804538E+03   -0.51944E-04   -0.11713E-03  4139   0.664E-02    0.440E-02
RMM:   5    -0.877302818461E+03   -0.13923E-04   -0.29655E-04  4107   0.312E-02    0.125E-02
RMM:   6    -0.877302820382E+03   -0.19207E-05   -0.57477E-05  4119   0.135E-02    0.913E-03
RMM:   7    -0.877302821167E+03   -0.78563E-06   -0.13224E-05  4051   0.652E-03    0.155E-03
RMM:   8    -0.877302821264E+03   -0.97134E-07   -0.25531E-06  2768   0.287E-03
   8 F= -.87730282E+03 E0= -.87730282E+03  d E =-.143673E-01
 trial-energy change:   -0.014367  1 .order   -0.014381   -0.026740   -0.002021
 step:   0.8949(harm=  0.8949)  dis= 0.00334  next Energy=  -877.302917 (dE=-0.145E-01)
 bond charge predicted
       N       E                     dE             d eps       ncg     rms          rms(c)
DAV:   1    -0.877302910287E+03   -0.89120E-04   -0.16454E-02  4704   0.276E-01    0.316E-02
RMM:   2    -0.877302904521E+03    0.57662E-05   -0.24337E-04  4048   0.332E-02    0.181E-02
RMM:   3    -0.877302900190E+03    0.43313E-05   -0.59507E-05  4048   0.139E-02    0.598E-03
RMM:   4    -0.877302900396E+03   -0.20660E-06   -0.79756E-06  3993   0.547E-03
   9 F= -.87730290E+03 E0= -.87730290E+03  d E =-.144464E-01
 curvature:  -0.81 expect dE=-0.849E-02 dE for cont linesearch -0.589E-08
 trial: gam= 0.32184 g(F)=  0.736E-02 g(S)=  0.315E-02 ort =-0.206E-04 (trialstep = 0.841E+00)
 search vector abs. value=  0.165E-01
 bond charge predicted
       N       E                     dE             d eps       ncg     rms          rms(c)
DAV:   1    -0.877305948499E+03   -0.30483E-02   -0.57286E-01  4116   0.166E+00    0.229E-01
RMM:   2    -0.877305838042E+03    0.11046E-03   -0.10745E-02  4048   0.215E-01    0.136E-01
RMM:   3    -0.877305646627E+03    0.19142E-03   -0.25133E-03  4049   0.916E-02    0.420E-02
RMM:   4    -0.877305667580E+03   -0.20953E-04   -0.41169E-04  4181   0.381E-02    0.228E-02
RMM:   5    -0.877305670901E+03   -0.33212E-05   -0.85731E-05  4134   0.173E-02    0.677E-03
RMM:   6    -0.877305671663E+03   -0.76205E-06   -0.17455E-05  4084   0.753E-03    0.472E-03
RMM:   7    -0.877305671721E+03   -0.58056E-07   -0.44551E-06  3150   0.383E-03
  10 F= -.87730567E+03 E0= -.87730567E+03  d E =-.277132E-02
 trial-energy change:   -0.002771  1 .order   -0.002749   -0.008830    0.003332
 step:   0.6123(harm=  0.6104)  dis= 0.00168  next Energy=  -877.306124 (dE=-0.322E-02)
 bond charge predicted
       N       E                     dE             d eps       ncg     rms          rms(c)
DAV:   1    -0.877306138585E+03   -0.46692E-03   -0.42277E-02  4134   0.451E-01    0.621E-02
RMM:   2    -0.877306129333E+03    0.92520E-05   -0.79539E-04  4048   0.584E-02    0.369E-02
RMM:   3    -0.877306114917E+03    0.14416E-04   -0.18326E-04  4049   0.248E-02    0.116E-02
RMM:   4    -0.877306116632E+03   -0.17155E-05   -0.30178E-05  4180   0.103E-02    0.624E-03
RMM:   5    -0.877306117214E+03   -0.58133E-06   -0.61740E-06  3471   0.465E-03
  11 F= -.87730612E+03 E0= -.87730612E+03  d E =-.321682E-02
 curvature:  -0.48 expect dE=-0.296E-02 dE for cont linesearch -0.156E-07
 trial: gam= 0.58905 g(F)=  0.599E-02 g(S)=  0.173E-03 ort = 0.232E-04 (trialstep = 0.795E+00)
 search vector abs. value=  0.119E-01
 bond charge predicted
       N       E                     dE             d eps       ncg     rms          rms(c)
DAV:   1    -0.877306247689E+03   -0.13106E-03   -0.45085E-01  4104   0.146E+00    0.179E-01
RMM:   2    -0.877306128160E+03    0.11953E-03   -0.79590E-03  4048   0.180E-01    0.109E-01
RMM:   3    -0.877305921018E+03    0.20714E-03   -0.18645E-03  4048   0.788E-02    0.337E-02
RMM:   4    -0.877305937245E+03   -0.16228E-04   -0.27916E-04  4159   0.321E-02    0.214E-02
RMM:   5    -0.877305939591E+03   -0.23461E-05   -0.60629E-05  4090   0.147E-02    0.538E-03
RMM:   6    -0.877305940209E+03   -0.61709E-06   -0.13521E-05  4037   0.665E-03    0.490E-03
RMM:   7    -0.877305940416E+03   -0.20772E-06   -0.33317E-06  2884   0.327E-03
  12 F= -.87730594E+03 E0= -.87730594E+03  d E =0.176798E-03
 trial-energy change:    0.000177  1 .order    0.000193   -0.004910    0.005296
 step:   0.3844(harm=  0.3825)  dis= 0.00075  next Energy=  -877.307306 (dE=-0.119E-02)
 bond charge predicted
       N       E                     dE             d eps       ncg     rms          rms(c)
DAV:   1    -0.877307389242E+03   -0.14490E-02   -0.12033E-01  4122   0.754E-01    0.925E-02
RMM:   2    -0.877307357457E+03    0.31785E-04   -0.21246E-03  4048   0.928E-02    0.563E-02
RMM:   3    -0.877307301630E+03    0.55826E-04   -0.49373E-04  4048   0.406E-02    0.175E-02
RMM:   4    -0.877307305907E+03   -0.42766E-05   -0.74102E-05  4157   0.165E-02    0.111E-02
RMM:   5    -0.877307306725E+03   -0.81788E-06   -0.16019E-05  4083   0.752E-03    0.282E-03
RMM:   6    -0.877307306892E+03   -0.16749E-06   -0.35458E-06  2942   0.341E-03
  13 F= -.87730731E+03 E0= -.87730731E+03  d E =-.118968E-02
 curvature:  -0.37 expect dE=-0.746E-03 dE for cont linesearch -0.505E-10
 trial: gam= 0.32872 g(F)=  0.190E-02 g(S)=  0.121E-03 ort =-0.128E-05 (trialstep = 0.713E+00)
 search vector abs. value=  0.331E-02
 bond charge predicted
       N       E                     dE             d eps       ncg     rms          rms(c)
DAV:   1    -0.877307965066E+03   -0.65834E-03   -0.90745E-02  4164   0.649E-01    0.663E-02
RMM:   2    -0.877307990270E+03   -0.25204E-04   -0.13670E-03  4048   0.782E-02    0.390E-02
RMM:   3    -0.877307978766E+03    0.11505E-04   -0.28510E-04  4049   0.319E-02    0.129E-02
RMM:   4    -0.877307982138E+03   -0.33724E-05   -0.44784E-05  4160   0.126E-02    0.752E-03
RMM:   5    -0.877307982980E+03   -0.84130E-06   -0.90967E-06  3967   0.575E-03
  14 F= -.87730798E+03 E0= -.87730798E+03  d E =-.676087E-03
 trial-energy change:   -0.000676  1 .order   -0.000676   -0.001439    0.000086
 step:   0.6726(harm=  0.6726)  dis= 0.00087  next Energy=  -877.307986 (dE=-0.679E-03)
 bond charge predicted
       N       E                     dE             d eps       ncg     rms          rms(c)
DAV:   1    -0.877307985169E+03   -0.30307E-05   -0.28772E-04  4680   0.367E-02    0.409E-03
RMM:   2    -0.877307985281E+03   -0.11246E-06   -0.39127E-06  3111   0.420E-03
  15 F= -.87730799E+03 E0= -.87730799E+03  d E =-.678389E-03
 curvature:  -0.55 expect dE=-0.186E-03 dE for cont linesearch -0.171E-07
 trial: gam= 0.16132 g(F)=  0.282E-03 g(S)=  0.553E-04 ort = 0.101E-04 (trialstep = 0.705E+00)
 search vector abs. value=  0.427E-03
 bond charge predicted
       N       E                     dE             d eps       ncg     rms          rms(c)
DAV:   1    -0.877308138068E+03   -0.15290E-03   -0.12378E-02  4143   0.239E-01    0.278E-02
RMM:   2    -0.877308131546E+03    0.65216E-05   -0.18012E-04  4048   0.281E-02    0.159E-02
RMM:   3    -0.877308128046E+03    0.35008E-05   -0.51670E-05  4048   0.128E-02    0.417E-03
RMM:   4    -0.877308128439E+03   -0.39307E-06   -0.63337E-06  3690   0.490E-03
  16 F= -.87730813E+03 E0= -.87730813E+03  d E =-.143157E-03
 trial-energy change:   -0.000143  1 .order   -0.000142   -0.000239   -0.000045
 step:   0.8698(harm=  0.8698)  dis= 0.00052  next Energy=  -877.308133 (dE=-0.147E-03)
 bond charge predicted
       N       E                     dE             d eps       ncg     rms          rms(c)
DAV:   1    -0.877308134703E+03   -0.66574E-05   -0.67957E-04  4560   0.561E-02    0.671E-03
RMM:   2    -0.877308134387E+03    0.31551E-06   -0.11564E-05  4046   0.708E-03    0.387E-03
RMM:   3    -0.877308134340E+03    0.46944E-07   -0.33553E-06  2935   0.322E-03
  17 F= -.87730813E+03 E0= -.87730813E+03  d E =-.149059E-03
 curvature:  -0.55 expect dE=-0.559E-04 dE for cont linesearch -0.580E-10
 trial: gam= 0.30700 g(F)=  0.959E-04 g(S)=  0.622E-05 ort =-0.213E-06 (trialstep = 0.738E+00)
 search vector abs. value=  0.142E-03
 bond charge predicted
       N       E                     dE             d eps       ncg     rms          rms(c)
DAV:   1    -0.877308163922E+03   -0.29535E-04   -0.39875E-03  4158   0.133E-01    0.176E-02
RMM:   2    -0.877308166871E+03   -0.29489E-05   -0.74575E-05  4048   0.180E-02    0.110E-02
RMM:   3    -0.877308165849E+03    0.10217E-05   -0.15177E-05  4048   0.741E-03    0.269E-03
RMM:   4    -0.877308166010E+03   -0.16055E-06   -0.23390E-06  2744   0.299E-03
  18 F= -.87730817E+03 E0= -.87730817E+03  d E =-.316693E-04
 trial-energy change:   -0.000032  1 .order   -0.000031   -0.000075    0.000013
 step:   0.6282(harm=  0.6282)  dis= 0.00029  next Energy=  -877.308166 (dE=-0.320E-04)
 bond charge predicted
       N       E                     dE             d eps       ncg     rms          rms(c)
DAV:   1    -0.877308166858E+03   -0.10090E-05   -0.86483E-05  4424   0.196E-02    0.251E-03
RMM:   2    -0.877308166894E+03   -0.35944E-07   -0.12968E-06  2421   0.236E-03
  19 F= -.87730817E+03 E0= -.87730817E+03  d E =-.325537E-04
 curvature:  -0.44 expect dE=-0.313E-04 dE for cont linesearch -0.330E-08
 trial: gam= 0.69859 g(F)=  0.658E-04 g(S)=  0.566E-05 ort = 0.104E-05 (trialstep = 0.715E+00)
 search vector abs. value=  0.142E-03
 bond charge predicted
       N       E                     dE             d eps       ncg     rms          rms(c)
DAV:   1    -0.877308173656E+03   -0.67977E-05   -0.47995E-03  4236   0.146E-01    0.166E-02
RMM:   2    -0.877308173712E+03   -0.56024E-07   -0.75430E-05  4048   0.175E-02    0.100E-02
RMM:   3    -0.877308171732E+03    0.19796E-05   -0.15736E-05  4048   0.742E-03    0.323E-03
RMM:   4    -0.877308171871E+03   -0.13880E-06   -0.22198E-06  2737   0.296E-03
  20 F= -.87730817E+03 E0= -.87730817E+03  d E =-.497700E-05
 trial-energy change:   -0.000005  1 .order   -0.000007   -0.000052    0.000039
 step:   0.4094(harm=  0.4094)  dis= 0.00015  next Energy=  -877.308182 (dE=-0.148E-04)
 bond charge predicted
       N       E                     dE             d eps       ncg     rms          rms(c)
DAV:   1    -0.877308181327E+03   -0.95947E-05   -0.87958E-04  4236   0.626E-02    0.701E-03
RMM:   2    -0.877308181394E+03   -0.67381E-07   -0.13279E-05  4042   0.736E-03    0.417E-03
RMM:   3    -0.877308181105E+03    0.28923E-06   -0.26920E-06  2697   0.308E-03
  21 F= -.87730818E+03 E0= -.87730818E+03  d E =-.142111E-04
 curvature:  -0.40 expect dE=-0.111E-04 dE for cont linesearch -0.115E-08
 trial: gam= 0.42292 g(F)=  0.241E-04 g(S)=  0.347E-05 ort =-0.637E-06 (trialstep = 0.654E+00)
 search vector abs. value=  0.525E-04
 bond charge predicted
       N       E                     dE             d eps       ncg     rms          rms(c)
DAV:   1    -0.877308191519E+03   -0.10125E-04   -0.89603E-04  4134   0.642E-02    0.812E-03
RMM:   2    -0.877308191392E+03    0.12685E-06   -0.12087E-05  4045   0.730E-03    0.463E-03
RMM:   3    -0.877308191309E+03    0.83196E-07   -0.35546E-06  3037   0.334E-03
  22 F= -.87730819E+03 E0= -.87730819E+03  d E =-.102040E-04
 trial-energy change:   -0.000010  1 .order   -0.000011   -0.000018   -0.000003
 step:   0.8061(harm=  0.8061)  dis= 0.00020  next Energy=  -877.308192 (dE=-0.110E-04)
 bond charge predicted
       N       E                     dE             d eps       ncg     rms          rms(c)
DAV:   1    -0.877308191916E+03   -0.52376E-06   -0.50631E-05  4560   0.152E-02    0.234E-03
RMM:   2    -0.877308191955E+03   -0.38641E-07   -0.99122E-07  2433   0.205E-03
  23 F= -.87730819E+03 E0= -.87730819E+03  d E =-.108496E-04
 curvature:  -0.77 expect dE=-0.154E-05 dE for cont linesearch -0.506E-07
 trial: gam=-0.01417 g(F)=  0.169E-05 g(S)=  0.293E-06 ort = 0.185E-05 (trialstep = 0.684E+00)
 search vector abs. value=  0.195E-05
 reached required accuracy - stopping structural energy minimisation
Warning: ieee_invalid is signaling
Warning: ieee_divide_by_zero is signaling
Warning: ieee_underflow is signaling
Warning: ieee_inexact is signaling
FORTRAN STOP
