<?xml version="1.0" encoding="ISO-8859-1"?>
<modeling>
 <generator>
  <i name="program" type="string">vasp </i>
  <i name="version" type="string">6.2.0  </i>
  <i name="subversion" type="string">18Jan21 (build Feb 25 2021 07:51:20) complex                          parallel </i>
  <i name="platform" type="string">LinuxPGI </i>
  <i name="date" type="string">2022 05 17 </i>
  <i name="time" type="string">13:24:10 </i>
 </generator>
 <incar>
  <i type="string" name="PREC">Accurate</i>
  <i type="string" name="ALGO">Fast</i>
  <i type="int" name="IBRION">     2</i>
  <i name="EDIFF">      0.00000100</i>
  <i type="int" name="NSW">   300</i>
  <i type="int" name="ISIF">     4</i>
  <i name="ENCUT">    700.00000000</i>
  <i type="string" name="LREAL">Auto</i>
  <i type="int" name="ISMEAR">    -5</i>
  <i name="SIGMA">      0.05000000</i>
  <i type="logical" name="LWAVE"> F  </i>
 </incar>
 <primitive_cell>
  <structure name="primitive_cell" >
   <crystal>
    <varray name="basis" >
     <v>       1.40364700       4.47775200      -8.26513950 </v>
     <v>       1.37766900       4.51376850      -3.06110800 </v>
     <v>       2.01408450      -9.14650850     -12.59833850 </v>
    </varray>
    <i name="volume">    110.27803834 </i>
    <varray name="rec_basis" >
     <v>      -0.76954972       0.10147995      -0.19670256 </v>
     <v>       1.19705978      -0.00940288       0.19819939 </v>
     <v>       0.21400493      -0.06429124       0.00151324 </v>
    </varray>
   </crystal>
   <varray name="positions" >
    <v>       0.12158400       0.31762400       0.31584600 </v>
    <v>       0.66782800       0.74337600       0.80326400 </v>
    <v>       0.66782800       0.25314000       0.80326400 </v>
    <v>       0.88241200       0.67638200       0.68273200 </v>
    <v>       0.32930600       0.25916600       0.19740000 </v>
    <v>       0.32930600       0.75291600       0.19740000 </v>
    <v>       0.37603000       0.59655600       0.98889400 </v>
    <v>       0.37603000       0.27535400       0.98889400 </v>
    <v>       0.62184000       0.06724000       0.34159000 </v>
    <v>       0.63796600       0.38144400       0.00695000 </v>
    <v>       0.63796600       0.70465800       0.00695000 </v>
    <v>       0.02000400       0.46999400       0.49599000 </v>
    <v>       0.30160000       0.04760000       0.67667200 </v>
    <v>       0.31354800       0.52967800       0.61217600 </v>
    <v>       0.71674800       0.42487800       0.38197800 </v>
   </varray>
  </structure>
  <varray name="primitive_index" >
   <v type="int" >        1 </v>
   <v type="int" >        9 </v>
   <v type="int" >       17 </v>
   <v type="int" >       28 </v>
   <v type="int" >       35 </v>
   <v type="int" >       42 </v>
   <v type="int" >       53 </v>
   <v type="int" >       61 </v>
   <v type="int" >       68 </v>
   <v type="int" >       75 </v>
   <v type="int" >       82 </v>
   <v type="int" >       89 </v>
   <v type="int" >       97 </v>
   <v type="int" >      105 </v>
   <v type="int" >      113 </v>
  </varray>
 </primitive_cell>
 <kpoints>
  <generation param="Gamma">
   <v type="int" name="divisions">       2        2        2 </v>
   <v name="usershift">      0.00000000       0.00000000       0.00000000 </v>
   <v name="genvec1">      0.50000000       0.00000000       0.00000000 </v>
   <v name="genvec2">     -0.00000000       0.50000000      -0.00000000 </v>
   <v name="genvec3">     -0.00000000      -0.00000000       0.50000000 </v>
   <v name="shift">      0.00000000       0.00000000       0.00000000 </v>
  </generation>
  <varray name="kpointlist" >
   <v>       0.00000000       0.00000000       0.00000000 </v>
   <v>       0.50000000       0.00000000       0.00000000 </v>
   <v>       0.00000000       0.50000000       0.00000000 </v>
   <v>       0.50000000       0.50000000       0.00000000 </v>
   <v>       0.00000000       0.00000000       0.50000000 </v>
   <v>       0.50000000       0.00000000       0.50000000 </v>
   <v>       0.00000000       0.50000000       0.50000000 </v>
   <v>       0.50000000       0.50000000       0.50000000 </v>
  </varray>
  <varray name="weights" >
   <v>       0.12500000 </v>
   <v>       0.12500000 </v>
   <v>       0.12500000 </v>
   <v>       0.12500000 </v>
   <v>       0.12500000 </v>
   <v>       0.12500000 </v>
   <v>       0.12500000 </v>
   <v>       0.12500000 </v>
  </varray>
  <varray name="tetrahedronlist"  type="int" >
   <v type="int" >        2        1        3        4        8 </v>
   <v type="int" >        2        1        2        4        8 </v>
   <v type="int" >        2        1        2        6        8 </v>
   <v type="int" >        2        1        3        7        8 </v>
   <v type="int" >        2        1        5        7        8 </v>
   <v type="int" >        2        1        5        6        8 </v>
   <v type="int" >        2        2        3        4        7 </v>
   <v type="int" >        2        1        2        3        7 </v>
   <v type="int" >        2        1        2        5        7 </v>
   <v type="int" >        2        2        4        7        8 </v>
   <v type="int" >        2        2        6        7        8 </v>
   <v type="int" >        2        2        5        6        7 </v>
   <v type="int" >        2        1        2        3        6 </v>
   <v type="int" >        2        2        3        4        6 </v>
   <v type="int" >        2        3        4        6        8 </v>
   <v type="int" >        2        1        3        5        6 </v>
   <v type="int" >        2        3        5        6        7 </v>
   <v type="int" >        2        3        6        7        8 </v>
   <v type="int" >        2        1        2        4        5 </v>
   <v type="int" >        2        1        3        4        5 </v>
   <v type="int" >        2        3        4        5        7 </v>
   <v type="int" >        2        2        4        5        6 </v>
   <v type="int" >        2        4        5        6        8 </v>
   <v type="int" >        2        4        5        7        8 </v>
  </varray>
  <i name="volumeweight">      0.02083333 </i>
 </kpoints>
 <parameters>
  <separator name="general" >
   <i type="string" name="SYSTEM">unknown system</i>
   <i type="logical" name="LCOMPAT"> F  </i>
  </separator>
  <separator name="electronic" >
   <i type="string" name="PREC">accura</i>
   <i name="ENMAX">    700.00000000</i>
   <i name="ENAUG">    644.87300000</i>
   <i name="EDIFF">      0.00000100</i>
   <i type="int" name="IALGO">    68</i>
   <i type="int" name="IWAVPR">    11</i>
   <i type="int" name="NBANDS">   253</i>
   <i type="int" name="NBANDSLOW">    -1</i>
   <i type="int" name="NBANDSHIGH">    -1</i>
   <i name="NELECT">    384.00000000</i>
   <i type="int" name="TURBO">     0</i>
   <i type="int" name="IRESTART">     0</i>
   <i type="int" name="NREBOOT">     0</i>
   <i type="int" name="NMIN">     0</i>
   <i name="EREF">      0.00000000</i>
   <separator name="electronic smearing" >
    <i type="int" name="ISMEAR">    -5</i>
    <i name="SIGMA">      0.05000000</i>
    <i name="KSPACING">      0.50000000</i>
    <i type="logical" name="KGAMMA"> T  </i>
    <i type="logical" name="KBLOWUP"> T  </i>
   </separator>
   <separator name="electronic projectors" >
    <i type="logical" name="LREAL"> T  </i>
    <v name="ROPT">     -0.00025000     -0.00025000</v>
    <i type="int" name="LMAXPAW">  -100</i>
    <i type="int" name="LMAXMIX">     2</i>
    <i type="logical" name="NLSPLINE"> F  </i>
   </separator>
   <separator name="electronic startup" >
    <i type="int" name="ISTART">     0</i>
    <i type="int" name="ICHARG">     2</i>
    <i type="int" name="INIWAV">     1</i>
   </separator>
   <separator name="electronic spin" >
    <i type="int" name="ISPIN">     1</i>
    <i type="logical" name="LNONCOLLINEAR"> F  </i>
    <v name="MAGMOM">      1.00000000      1.00000000      1.00000000      1.00000000      1.00000000      1.00000000      1.00000000      1.00000000      1.00000000      1.00000000      1.00000000      1.00000000      1.00000000      1.00000000      1.00000000      1.00000000      1.00000000      1.00000000      1.00000000      1.00000000
      1.00000000      1.00000000      1.00000000      1.00000000      1.00000000      1.00000000      1.00000000      1.00000000      1.00000000      1.00000000      1.00000000      1.00000000      1.00000000      1.00000000      1.00000000      1.00000000      1.00000000      1.00000000      1.00000000      1.00000000
      1.00000000      1.00000000      1.00000000      1.00000000      1.00000000      1.00000000      1.00000000      1.00000000      1.00000000      1.00000000      1.00000000      1.00000000      1.00000000      1.00000000      1.00000000      1.00000000      1.00000000      1.00000000      1.00000000      1.00000000
      1.00000000      1.00000000      1.00000000      1.00000000      1.00000000      1.00000000      1.00000000      1.00000000      1.00000000      1.00000000      1.00000000      1.00000000      1.00000000      1.00000000      1.00000000      1.00000000      1.00000000      1.00000000      1.00000000      1.00000000
      1.00000000      1.00000000      1.00000000      1.00000000      1.00000000      1.00000000      1.00000000      1.00000000      1.00000000      1.00000000      1.00000000      1.00000000      1.00000000      1.00000000      1.00000000      1.00000000      1.00000000      1.00000000      1.00000000      1.00000000
      1.00000000      1.00000000      1.00000000      1.00000000      1.00000000      1.00000000      1.00000000      1.00000000      1.00000000      1.00000000      1.00000000      1.00000000      1.00000000      1.00000000      1.00000000      1.00000000      1.00000000      1.00000000      1.00000000      1.00000000
</v>
    <i name="NUPDOWN">     -1.00000000</i>
    <i type="logical" name="LSORBIT"> F  </i>
    <v name="SAXIS">      0.00000000      0.00000000      1.00000000</v>
    <i type="logical" name="LSPIRAL"> F  </i>
    <v name="QSPIRAL">      0.00000000      0.00000000      0.00000000</v>
    <i type="logical" name="LZEROZ"> F  </i>
   </separator>
   <separator name="electronic exchange-correlation" >
    <i type="logical" name="LASPH"> F  </i>
    <i type="logical" name="LMETAGGA"> F  </i>
   </separator>
   <separator name="electronic convergence" >
    <i type="int" name="NELM">    60</i>
    <i type="int" name="NELMDL">    -5</i>
    <i type="int" name="NELMIN">     2</i>
    <i name="ENINI">    700.00000000</i>
    <separator name="electronic convergence detail" >
     <i type="logical" name="LDIAG"> T  </i>
     <i type="logical" name="LSUBROT"> F  </i>
     <i name="WEIMIN">      0.00100000</i>
     <i name="EBREAK">      0.00000000</i>
     <i name="DEPER">      0.30000000</i>
     <i type="int" name="NRMM">     4</i>
     <i name="TIME">      0.40000000</i>
    </separator>
   </separator>
   <separator name="electronic mixer" >
    <i name="AMIX">      0.40000000</i>
    <i name="BMIX">      1.00000000</i>
    <i name="AMIN">      0.10000000</i>
    <i name="AMIX_MAG">      1.60000000</i>
    <i name="BMIX_MAG">      1.00000000</i>
    <separator name="electronic mixer details" >
     <i type="int" name="IMIX">     4</i>
     <i type="logical" name="MIXFIRST"> F  </i>
     <i type="int" name="MAXMIX">   -45</i>
     <i name="WC">    100.00000000</i>
     <i type="int" name="INIMIX">     1</i>
     <i type="int" name="MIXPRE">     1</i>
     <i type="int" name="MREMOVE">     5</i>
    </separator>
   </separator>
   <separator name="electronic dipolcorrection" >
    <i type="logical" name="LDIPOL"> F  </i>
    <i type="logical" name="LMONO"> F  </i>
    <i type="int" name="IDIPOL">     0</i>
    <i name="EPSILON">      1.00000000</i>
    <v name="DIPOL">   -100.00000000   -100.00000000   -100.00000000</v>
    <i name="EFIELD">      0.00000000</i>
   </separator>
  </separator>
  <separator name="grids" >
   <i type="int" name="NGX">    90</i>
   <i type="int" name="NGY">    90</i>
   <i type="int" name="NGZ">    90</i>
   <i type="int" name="NGXF">   180</i>
   <i type="int" name="NGYF">   180</i>
   <i type="int" name="NGZF">   180</i>
   <i type="logical" name="ADDGRID"> F  </i>
  </separator>
  <separator name="ionic" >
   <i type="int" name="NSW">   300</i>
   <i type="int" name="IBRION">     2</i>
   <i type="int" name="MDALGO">     0</i>
   <i type="int" name="ISIF">     4</i>
   <i name="PSTRESS">      0.00000000</i>
   <i name="EDIFFG">      0.00001000</i>
   <i type="int" name="NFREE">     1</i>
   <i name="POTIM">      0.50000000</i>
   <i name="SMASS">     -3.00000000</i>
   <i name="SCALEE">      1.00000000</i>
  </separator>
  <separator name="ionic md" >
   <i name="TEBEG">      0.00010000</i>
   <i name="TEEND">      0.00010000</i>
   <i type="int" name="NBLOCK">     1</i>
   <i type="int" name="KBLOCK">   300</i>
   <i type="int" name="NPACO">   256</i>
   <i name="APACO">     16.00000000</i>
  </separator>
  <separator name="symmetry" >
   <i type="int" name="ISYM">     2</i>
   <i name="SYMPREC">      0.00001000</i>
  </separator>
  <separator name="dos" >
   <i type="int" name="LORBIT">     0</i>
   <v name="RWIGS">     -1.00000000     -1.00000000</v>
   <i type="int" name="NEDOS">   301</i>
   <i name="EMIN">     10.00000000</i>
   <i name="EMAX">    -10.00000000</i>
   <i name="EFERMI">      0.00000000</i>
  </separator>
  <separator name="writing" >
   <i type="int" name="NWRITE">     2</i>
   <i type="logical" name="LWAVE"> F  </i>
   <i type="logical" name="LDOWNSAMPLE"> F  </i>
   <i type="logical" name="LCHARG"> T  </i>
   <i type="logical" name="LPARD"> F  </i>
   <i type="logical" name="LVTOT"> F  </i>
   <i type="logical" name="LVHAR"> F  </i>
   <i type="logical" name="LELF"> F  </i>
   <i type="logical" name="LOPTICS"> F  </i>
   <v name="STM">      0.00000000      0.00000000      0.00000000      0.00000000      0.00000000      0.00000000      0.00000000</v>
  </separator>
  <separator name="performance" >
   <i type="int" name="NPAR">     1</i>
   <i type="int" name="NSIM">     4</i>
   <i type="int" name="NBLK">    -1</i>
   <i type="logical" name="LPLANE"> T  </i>
   <i type="logical" name="LSCALAPACK"> T  </i>
   <i type="logical" name="LSCAAWARE"> F  </i>
   <i type="logical" name="LSCALU"> F  </i>
   <i type="logical" name="LASYNC"> F  </i>
   <i type="logical" name="LORBITALREAL"> F  </i>
  </separator>
  <separator name="miscellaneous" >
   <i type="int" name="IDIOT">     3</i>
   <i type="int" name="PHON_NSTRUCT">    -1</i>
   <i type="logical" name="LMUSIC"> F  </i>
   <v name="POMASS">     10.81100000     12.01100000</v>
   <v name="DARWINR">      0.00000000      0.00000000</v>
   <v name="DARWINV">      1.00000000      1.00000000</v>
   <i type="logical" name="LCORR"> T  </i>
  </separator>
  <i type="logical" name="GGA_COMPAT"> T  </i>
  <i type="logical" name="LBERRY"> F  </i>
  <i type="int" name="ICORELEVEL">     0</i>
  <i type="logical" name="LDAU"> F  </i>
  <i type="int" name="I_CONSTRAINED_M">     0</i>
  <separator name="electronic exchange-correlation" >
   <i type="string" name="GGA">--</i>
   <i type="int" name="VOSKOWN">     0</i>
   <i type="logical" name="LHFCALC"> F  </i>
   <i type="string" name="PRECFOCK"></i>
   <i type="logical" name="LSYMGRAD"> F  </i>
   <i type="logical" name="LHFONE"> F  </i>
   <i type="logical" name="LRHFCALC"> F  </i>
   <i type="logical" name="LTHOMAS"> F  </i>
   <i type="logical" name="LMODELHF"> F  </i>
   <i type="logical" name="LFOCKACE"> F  </i>
   <i name="ENCUT4O">     -1.00000000</i>
   <i type="int" name="EXXOEP">     0</i>
   <i type="int" name="FOURORBIT">     0</i>
   <i name="AEXX">      0.00000000</i>
   <i name="HFALPHA">      0.00000000</i>
   <i name="MCALPHA">      0.00000000</i>
   <i name="ALDAX">      1.00000000</i>
   <i name="AGGAX">      1.00000000</i>
   <i name="ALDAC">      1.00000000</i>
   <i name="AGGAC">      1.00000000</i>
   <i type="int" name="NKREDX">     1</i>
   <i type="int" name="NKREDY">     1</i>
   <i type="int" name="NKREDZ">     1</i>
   <i type="logical" name="SHIFTRED"> F  </i>
   <i type="logical" name="ODDONLY"> F  </i>
   <i type="logical" name="EVENONLY"> F  </i>
   <i type="int" name="LMAXFOCK">     0</i>
   <i type="int" name="NMAXFOCKAE">     0</i>
   <i type="logical" name="LFOCKAEDFT"> F  </i>
   <i name="HFSCREEN">      0.00000000</i>
   <i name="HFSCREENC">      0.00000000</i>
   <i type="int" name="NBANDSGWLOW">     0</i>
  </separator>
  <separator name="vdW DFT" >
   <i type="logical" name="LUSE_VDW"> F  </i>
   <i name="Zab_VDW">     -0.84910000</i>
   <i name="PARAM1">      0.12340000</i>
   <i name="PARAM2">      1.00000000</i>
   <i name="PARAM3">      0.00000000</i>
  </separator>
  <separator name="model GW" >
   <i type="int" name="MODEL_GW">     0</i>
   <i name="MODEL_EPS0">      4.41112153</i>
   <i name="MODEL_ALPHA">      1.00000000</i>
  </separator>
  <separator name="linear response parameters" >
   <i type="logical" name="LEPSILON"> F  </i>
   <i type="logical" name="LRPA"> F  </i>
   <i type="logical" name="LNABLA"> F  </i>
   <i type="logical" name="LVEL"> F  </i>
   <i type="int" name="KINTER">     0</i>
   <i name="CSHIFT">      0.10000000</i>
   <i name="OMEGAMAX">     -1.00000000</i>
   <i name="DEG_THRESHOLD">      0.00200000</i>
   <i name="RTIME">     -0.10000000</i>
   <i name="WPLASMAI">      0.00000000</i>
   <v name="DFIELD">      0.00000000      0.00000000      0.00000000</v>
   <v name="WPLASMA">      0.00000000      0.00000000      0.00000000      0.00000000      0.00000000      0.00000000      0.00000000      0.00000000      0.00000000</v>
  </separator>
  <separator name="orbital magnetization" >
   <i type="logical" name="NUCIND"> F  </i>
   <v name="MAGPOS">      0.00000000      0.00000000      0.00000000</v>
   <i type="logical" name="LNICSALL"> T  </i>
   <i type="logical" name="ORBITALMAG"> F  </i>
   <i type="logical" name="LMAGBLOCH"> F  </i>
   <i type="logical" name="LCHIMAG"> F  </i>
   <i type="logical" name="LGAUGE"> T  </i>
   <i type="int" name="MAGATOM">     0</i>
   <v name="MAGDIPOL">      0.00000000      0.00000000      0.00000000</v>
   <v name="AVECCONST">      0.00000000      0.00000000      0.00000000</v>
  </separator>
  <separator name="response functions" >
   <i type="logical" name="LFINITE_TEMPERATURE"> F  </i>
   <i type="logical" name="LADDER"> F  </i>
   <i type="logical" name="LRPAFORCE"> F  </i>
   <i type="logical" name="LFXC"> F  </i>
   <i type="logical" name="LHARTREE"> T  </i>
   <i type="int" name="IBSE">     0</i>
   <v type="int" name="KPOINT">    -1     0     0     0</v>
   <i type="logical" name="LTCTC"> F  </i>
   <i type="logical" name="LTCTE"> F  </i>
   <i type="logical" name="LTETE"> F  </i>
   <i type="logical" name="LTRIPLET"> F  </i>
   <i type="logical" name="LFXCEPS"> F  </i>
   <i type="logical" name="LFXHEG"> F  </i>
   <i type="int" name="NATURALO">     2</i>
   <i type="logical" name="LHOLEGF"> F  </i>
   <i type="logical" name="L2ORDER"> F  </i>
   <i type="logical" name="LDMP1"> F  </i>
   <i type="logical" name="LMP2LT"> F  </i>
   <i type="logical" name="LSMP2LT"> F  </i>
   <i type="logical" name="LGWLF"> F  </i>
   <i name="ENCUTGW">     -2.00000000</i>
   <i name="ENCUTGWSOFT">     -2.00000000</i>
   <i name="ENCUTLF">     -1.00000000</i>
   <i type="logical" name="LESF_SPLINES"> F  </i>
   <i type="int" name="LMAXMP2">    -1</i>
   <i name="SCISSOR">      0.00000000</i>
   <i type="int" name="NOMEGA">     0</i>
   <i type="int" name="NOMEGAR">     0</i>
   <i type="int" name="NBANDSGW">    -1</i>
   <i type="int" name="NBANDSO">    -1</i>
   <i type="int" name="NBANDSV">    -1</i>
   <i type="int" name="NELM">     1</i>
   <i type="int" name="NELMHF">     1</i>
   <i type="int" name="DIM">     3</i>
   <i type="int" name="IESPILON">     4</i>
   <i type="int" name="ANTIRES">     0</i>
   <i name="OMEGAMAX">    -30.00000000</i>
   <i name="OMEGAMIN">    -30.00000000</i>
   <i name="OMEGATL">   -200.00000000</i>
   <i type="int" name="OMEGAGRID">     0</i>
   <i name="CSHIFT">     -0.10000000</i>
   <i type="logical" name="LSELFENERGY"> F  </i>
   <i type="logical" name="LSPECTRAL"> F  </i>
   <i type="logical" name="LSPECTRALGW"> F  </i>
   <i type="logical" name="LSINGLES"> F  </i>
   <i type="logical" name="LFERMIGW"> F  </i>
   <i type="logical" name="ODDONLYGW"> F  </i>
   <i type="logical" name="EVENONLYGW"> F  </i>
   <i type="int" name="NKREDLFX">     1</i>
   <i type="int" name="NKREDLFY">     1</i>
   <i type="int" name="NKREDLFZ">     1</i>
   <i type="int" name="MAXMEM">  2800</i>
   <i type="int" name="TELESCOPE">     0</i>
   <i type="int" name="NTAUPAR">    -1</i>
   <i type="int" name="NOMEGAPAR">    -1</i>
   <i name="DAMP_NEWTON">      0.80000001</i>
   <i name="LAMBDA">      1.00000000</i>
  </separator>
  <separator name="External order field" >
   <i name="OFIELD_KAPPA">      0.00000000</i>
   <v name="OFIELD_K">      0.00000000      0.00000000      0.00000000</v>
   <i name="OFIELD_Q6_NEAR">      0.00000000</i>
   <i name="OFIELD_Q6_FAR">      0.00000000</i>
   <i name="OFIELD_A">      0.00000000</i>
  </separator>
 </parameters>
 <atominfo>
  <atoms>     120 </atoms>
  <types>       2 </types>
  <array name="atoms" >
   <dimension dim="1">ion</dimension>
   <field type="string">element</field>
   <field type="int">atomtype</field>
   <set>
    <rc><c>B </c><c>   1</c></rc>
    <rc><c>B </c><c>   1</c></rc>
    <rc><c>B </c><c>   1</c></rc>
    <rc><c>B </c><c>   1</c></rc>
    <rc><c>B </c><c>   1</c></rc>
    <rc><c>B </c><c>   1</c></rc>
    <rc><c>B </c><c>   1</c></rc>
    <rc><c>B </c><c>   1</c></rc>
    <rc><c>B </c><c>   1</c></rc>
    <rc><c>B </c><c>   1</c></rc>
    <rc><c>B </c><c>   1</c></rc>
    <rc><c>B </c><c>   1</c></rc>
    <rc><c>B </c><c>   1</c></rc>
    <rc><c>B </c><c>   1</c></rc>
    <rc><c>B </c><c>   1</c></rc>
    <rc><c>B </c><c>   1</c></rc>
    <rc><c>B </c><c>   1</c></rc>
    <rc><c>B </c><c>   1</c></rc>
    <rc><c>B </c><c>   1</c></rc>
    <rc><c>B </c><c>   1</c></rc>
    <rc><c>B </c><c>   1</c></rc>
    <rc><c>B </c><c>   1</c></rc>
    <rc><c>B </c><c>   1</c></rc>
    <rc><c>B </c><c>   1</c></rc>
    <rc><c>B </c><c>   1</c></rc>
    <rc><c>B </c><c>   1</c></rc>
    <rc><c>B </c><c>   1</c></rc>
    <rc><c>B </c><c>   1</c></rc>
    <rc><c>B </c><c>   1</c></rc>
    <rc><c>B </c><c>   1</c></rc>
    <rc><c>B </c><c>   1</c></rc>
    <rc><c>B </c><c>   1</c></rc>
    <rc><c>B </c><c>   1</c></rc>
    <rc><c>B </c><c>   1</c></rc>
    <rc><c>B </c><c>   1</c></rc>
    <rc><c>B </c><c>   1</c></rc>
    <rc><c>B </c><c>   1</c></rc>
    <rc><c>B </c><c>   1</c></rc>
    <rc><c>B </c><c>   1</c></rc>
    <rc><c>B </c><c>   1</c></rc>
    <rc><c>B </c><c>   1</c></rc>
    <rc><c>B </c><c>   1</c></rc>
    <rc><c>B </c><c>   1</c></rc>
    <rc><c>B </c><c>   1</c></rc>
    <rc><c>B </c><c>   1</c></rc>
    <rc><c>B </c><c>   1</c></rc>
    <rc><c>B </c><c>   1</c></rc>
    <rc><c>B </c><c>   1</c></rc>
    <rc><c>B </c><c>   1</c></rc>
    <rc><c>B </c><c>   1</c></rc>
    <rc><c>B </c><c>   1</c></rc>
    <rc><c>B </c><c>   1</c></rc>
    <rc><c>B </c><c>   1</c></rc>
    <rc><c>B </c><c>   1</c></rc>
    <rc><c>B </c><c>   1</c></rc>
    <rc><c>B </c><c>   1</c></rc>
    <rc><c>B </c><c>   1</c></rc>
    <rc><c>B </c><c>   1</c></rc>
    <rc><c>B </c><c>   1</c></rc>
    <rc><c>B </c><c>   1</c></rc>
    <rc><c>B </c><c>   1</c></rc>
    <rc><c>B </c><c>   1</c></rc>
    <rc><c>B </c><c>   1</c></rc>
    <rc><c>B </c><c>   1</c></rc>
    <rc><c>B </c><c>   1</c></rc>
    <rc><c>B </c><c>   1</c></rc>
    <rc><c>B </c><c>   1</c></rc>
    <rc><c>B </c><c>   1</c></rc>
    <rc><c>B </c><c>   1</c></rc>
    <rc><c>B </c><c>   1</c></rc>
    <rc><c>B </c><c>   1</c></rc>
    <rc><c>B </c><c>   1</c></rc>
    <rc><c>B </c><c>   1</c></rc>
    <rc><c>B </c><c>   1</c></rc>
    <rc><c>B </c><c>   1</c></rc>
    <rc><c>B </c><c>   1</c></rc>
    <rc><c>B </c><c>   1</c></rc>
    <rc><c>B </c><c>   1</c></rc>
    <rc><c>B </c><c>   1</c></rc>
    <rc><c>B </c><c>   1</c></rc>
    <rc><c>B </c><c>   1</c></rc>
    <rc><c>B </c><c>   1</c></rc>
    <rc><c>B </c><c>   1</c></rc>
    <rc><c>B </c><c>   1</c></rc>
    <rc><c>B </c><c>   1</c></rc>
    <rc><c>B </c><c>   1</c></rc>
    <rc><c>B </c><c>   1</c></rc>
    <rc><c>B </c><c>   1</c></rc>
    <rc><c>B </c><c>   1</c></rc>
    <rc><c>B </c><c>   1</c></rc>
    <rc><c>B </c><c>   1</c></rc>
    <rc><c>B </c><c>   1</c></rc>
    <rc><c>B </c><c>   1</c></rc>
    <rc><c>B </c><c>   1</c></rc>
    <rc><c>B </c><c>   1</c></rc>
    <rc><c>B </c><c>   1</c></rc>
    <rc><c>C </c><c>   2</c></rc>
    <rc><c>C </c><c>   2</c></rc>
    <rc><c>C </c><c>   2</c></rc>
    <rc><c>C </c><c>   2</c></rc>
    <rc><c>C </c><c>   2</c></rc>
    <rc><c>C </c><c>   2</c></rc>
    <rc><c>C </c><c>   2</c></rc>
    <rc><c>C </c><c>   2</c></rc>
    <rc><c>C </c><c>   2</c></rc>
    <rc><c>C </c><c>   2</c></rc>
    <rc><c>C </c><c>   2</c></rc>
    <rc><c>C </c><c>   2</c></rc>
    <rc><c>C </c><c>   2</c></rc>
    <rc><c>C </c><c>   2</c></rc>
    <rc><c>C </c><c>   2</c></rc>
    <rc><c>C </c><c>   2</c></rc>
    <rc><c>C </c><c>   2</c></rc>
    <rc><c>C </c><c>   2</c></rc>
    <rc><c>C </c><c>   2</c></rc>
    <rc><c>C </c><c>   2</c></rc>
    <rc><c>C </c><c>   2</c></rc>
    <rc><c>C </c><c>   2</c></rc>
    <rc><c>C </c><c>   2</c></rc>
    <rc><c>C </c><c>   2</c></rc>
   </set>
  </array>
  <array name="atomtypes" >
   <dimension dim="1">type</dimension>
   <field type="int">atomspertype</field>
   <field type="string">element</field>
   <field>mass</field>
   <field>valence</field>
   <field type="string">pseudopotential</field>
   <set>
    <rc><c>  96</c><c>B </c><c>     10.81100000</c><c>      3.00000000</c><c>  PAW_PBE B 06Sep2000                   </c></rc>
    <rc><c>  24</c><c>C </c><c>     12.01100000</c><c>      4.00000000</c><c>  PAW_PBE C 08Apr2002                   </c></rc>
   </set>
  </array>
 </atominfo>
 <structure name="initialpos" >
  <crystal>
   <varray name="basis" >
    <v>       9.33102100       0.05018900       4.19114300 </v>
    <v>       2.70338200       9.09957000       4.28584700 </v>
    <v>      -0.05195600       0.07203300      10.40806300 </v>
   </varray>
   <i name="volume">    882.22430671 </i>
   <varray name="rec_basis" >
    <v>       0.10700246      -0.03214562       0.00075662 </v>
    <v>      -0.00024990       0.11032978      -0.00076483 </v>
    <v>      -0.04298510      -0.03248728       0.09608962 </v>
   </varray>
  </crystal>
  <varray name="positions" >
   <v>       0.15792300       0.40375800       0.40375800 </v>
   <v>       0.15792300       0.40375800       0.90375800 </v>
   <v>       0.15792300       0.90375800       0.40375800 </v>
   <v>       0.15792300       0.90375800       0.90375800 </v>
   <v>       0.65792300       0.40375800       0.40375800 </v>
   <v>       0.65792300       0.40375800       0.90375800 </v>
   <v>       0.65792300       0.90375800       0.40375800 </v>
   <v>       0.65792300       0.90375800       0.90375800 </v>
   <v>       0.40163200       0.40233800       0.15722000 </v>
   <v>       0.40163200       0.40233800       0.65722000 </v>
   <v>       0.40163200       0.90233800       0.15722000 </v>
   <v>       0.40163200       0.90233800       0.65722000 </v>
   <v>       0.90163200       0.40233800       0.15722000 </v>
   <v>       0.90163200       0.40233800       0.65722000 </v>
   <v>       0.90163200       0.90233800       0.15722000 </v>
   <v>       0.90163200       0.90233800       0.65722000 </v>
   <v>       0.40163200       0.15722000       0.40233800 </v>
   <v>       0.40163200       0.15722000       0.90233800 </v>
   <v>       0.40163200       0.65722000       0.40233800 </v>
   <v>       0.40163200       0.65722000       0.90233800 </v>
   <v>       0.90163200       0.15722000       0.40233800 </v>
   <v>       0.90163200       0.15722000       0.90233800 </v>
   <v>       0.90163200       0.65722000       0.40233800 </v>
   <v>       0.90163200       0.65722000       0.90233800 </v>
   <v>       0.34136600       0.09666500       0.09666500 </v>
   <v>       0.34136600       0.09666500       0.59666500 </v>
   <v>       0.34136600       0.59666500       0.09666500 </v>
   <v>       0.34136600       0.59666500       0.59666500 </v>
   <v>       0.84136600       0.09666500       0.09666500 </v>
   <v>       0.84136600       0.09666500       0.59666500 </v>
   <v>       0.84136600       0.59666500       0.09666500 </v>
   <v>       0.84136600       0.59666500       0.59666500 </v>
   <v>       0.09870000       0.09683600       0.34371100 </v>
   <v>       0.09870000       0.09683600       0.84371100 </v>
   <v>       0.09870000       0.59683600       0.34371100 </v>
   <v>       0.09870000       0.59683600       0.84371100 </v>
   <v>       0.59870000       0.09683600       0.34371100 </v>
   <v>       0.59870000       0.09683600       0.84371100 </v>
   <v>       0.59870000       0.59683600       0.34371100 </v>
   <v>       0.59870000       0.59683600       0.84371100 </v>
   <v>       0.09870000       0.34371100       0.09683600 </v>
   <v>       0.09870000       0.34371100       0.59683600 </v>
   <v>       0.09870000       0.84371100       0.09683600 </v>
   <v>       0.09870000       0.84371100       0.59683600 </v>
   <v>       0.59870000       0.34371100       0.09683600 </v>
   <v>       0.59870000       0.34371100       0.59683600 </v>
   <v>       0.59870000       0.84371100       0.09683600 </v>
   <v>       0.59870000       0.84371100       0.59683600 </v>
   <v>       0.49444700       0.49739900       0.33679800 </v>
   <v>       0.49444700       0.49739900       0.83679800 </v>
   <v>       0.49444700       0.99739900       0.33679800 </v>
   <v>       0.49444700       0.99739900       0.83679800 </v>
   <v>       0.99444700       0.49739900       0.33679800 </v>
   <v>       0.99444700       0.49739900       0.83679800 </v>
   <v>       0.99444700       0.99739900       0.33679800 </v>
   <v>       0.99444700       0.99739900       0.83679800 </v>
   <v>       0.49444700       0.33679800       0.49739900 </v>
   <v>       0.49444700       0.33679800       0.99739900 </v>
   <v>       0.49444700       0.83679800       0.49739900 </v>
   <v>       0.49444700       0.83679800       0.99739900 </v>
   <v>       0.99444700       0.33679800       0.49739900 </v>
   <v>       0.99444700       0.33679800       0.99739900 </v>
   <v>       0.99444700       0.83679800       0.49739900 </v>
   <v>       0.99444700       0.83679800       0.99739900 </v>
   <v>       0.17079500       0.00295000       0.00295000 </v>
   <v>       0.17079500       0.00295000       0.50295000 </v>
   <v>       0.17079500       0.50295000       0.00295000 </v>
   <v>       0.17079500       0.50295000       0.50295000 </v>
   <v>       0.67079500       0.00295000       0.00295000 </v>
   <v>       0.67079500       0.00295000       0.50295000 </v>
   <v>       0.67079500       0.50295000       0.00295000 </v>
   <v>       0.67079500       0.50295000       0.50295000 </v>
   <v>       0.00347500       0.00275500       0.16436200 </v>
   <v>       0.00347500       0.00275500       0.66436200 </v>
   <v>       0.00347500       0.50275500       0.16436200 </v>
   <v>       0.00347500       0.50275500       0.66436200 </v>
   <v>       0.50347500       0.00275500       0.16436200 </v>
   <v>       0.50347500       0.00275500       0.66436200 </v>
   <v>       0.50347500       0.50275500       0.16436200 </v>
   <v>       0.50347500       0.50275500       0.66436200 </v>
   <v>       0.00347500       0.16436200       0.00275500 </v>
   <v>       0.00347500       0.16436200       0.50275500 </v>
   <v>       0.00347500       0.66436200       0.00275500 </v>
   <v>       0.00347500       0.66436200       0.50275500 </v>
   <v>       0.50347500       0.16436200       0.00275500 </v>
   <v>       0.50347500       0.16436200       0.50275500 </v>
   <v>       0.50347500       0.66436200       0.00275500 </v>
   <v>       0.50347500       0.66436200       0.50275500 </v>
   <v>       0.24799500       0.24900900       0.24900900 </v>
   <v>       0.24799500       0.24900900       0.74900900 </v>
   <v>       0.24799500       0.74900900       0.24900900 </v>
   <v>       0.24799500       0.74900900       0.74900900 </v>
   <v>       0.74799500       0.24900900       0.24900900 </v>
   <v>       0.74799500       0.24900900       0.74900900 </v>
   <v>       0.74799500       0.74900900       0.24900900 </v>
   <v>       0.74799500       0.74900900       0.74900900 </v>
   <v>       0.33833600       0.49792800       0.49792800 </v>
   <v>       0.33833600       0.49792800       0.99792800 </v>
   <v>       0.33833600       0.99792800       0.49792800 </v>
   <v>       0.33833600       0.99792800       0.99792800 </v>
   <v>       0.83833600       0.49792800       0.49792800 </v>
   <v>       0.83833600       0.49792800       0.99792800 </v>
   <v>       0.83833600       0.99792800       0.49792800 </v>
   <v>       0.83833600       0.99792800       0.99792800 </v>
   <v>       0.30608800       0.30943700       0.30943700 </v>
   <v>       0.30608800       0.30943700       0.80943700 </v>
   <v>       0.30608800       0.80943700       0.30943700 </v>
   <v>       0.30608800       0.80943700       0.80943700 </v>
   <v>       0.80608800       0.30943700       0.30943700 </v>
   <v>       0.80608800       0.30943700       0.80943700 </v>
   <v>       0.80608800       0.80943700       0.30943700 </v>
   <v>       0.80608800       0.80943700       0.80943700 </v>
   <v>       0.19098900       0.18883500       0.18883500 </v>
   <v>       0.19098900       0.18883500       0.68883500 </v>
   <v>       0.19098900       0.68883500       0.18883500 </v>
   <v>       0.19098900       0.68883500       0.68883500 </v>
   <v>       0.69098900       0.18883500       0.18883500 </v>
   <v>       0.69098900       0.18883500       0.68883500 </v>
   <v>       0.69098900       0.68883500       0.18883500 </v>
   <v>       0.69098900       0.68883500       0.68883500 </v>
  </varray>
 </structure>
 <calculation>
  <scstep>
   <time name="dav">    7.58    7.58</time>
   <time name="total">    7.88    7.88</time>
   <energy>
    <i name="alphaZ">   1172.74051251 </i>
    <i name="ewald"> -11584.48990699 </i>
    <i name="hartreedc">  -1081.65452238 </i>
    <i name="XCdc">   1012.84153275 </i>
    <i name="pawpsdc">   6780.51620165 </i>
    <i name="pawaedc">  -6712.07122612 </i>
    <i name="eentropy">      0.00000000 </i>
    <i name="bandstr">   1569.99449656 </i>
    <i name="atom">  10363.97701633 </i>
    <i name="e_fr_energy">   1521.85410431 </i>
    <i name="e_wo_entrp">   1521.85410431 </i>
    <i name="e_0_energy">   1521.85410431 </i>
   </energy>
  </scstep>
  <scstep>
   <time name="dav">    8.75    8.75</time>
   <time name="total">    8.78    8.77</time>
   <energy>
    <i name="e_fr_energy">   -780.62402125 </i>
    <i name="e_wo_entrp">   -780.62402125 </i>
    <i name="e_0_energy">   -780.62402125 </i>
   </energy>
  </scstep>
  <scstep>
   <time name="dav">    8.71    8.70</time>
   <time name="total">    8.73    8.73</time>
   <energy>
    <i name="e_fr_energy">   -926.56428047 </i>
    <i name="e_wo_entrp">   -926.56428047 </i>
    <i name="e_0_energy">   -926.56428047 </i>
   </energy>
  </scstep>
  <scstep>
   <time name="dav">    8.64    8.63</time>
   <time name="total">    8.66    8.66</time>
   <energy>
    <i name="e_fr_energy">   -930.13256313 </i>
    <i name="e_wo_entrp">   -930.13256313 </i>
    <i name="e_0_energy">   -930.13256313 </i>
   </energy>
  </scstep>
  <scstep>
   <time name="dav">    8.54    8.53</time>
   <time name="total">   10.40   10.40</time>
   <energy>
    <i name="e_fr_energy">   -930.23365108 </i>
    <i name="e_wo_entrp">   -930.23365108 </i>
    <i name="e_0_energy">   -930.23365108 </i>
   </energy>
  </scstep>
  <scstep>
   <time name="diag">    1.64    1.64</time>
   <time name="diis">    6.69    6.64</time>
   <time name="orth">    0.05    0.05</time>
   <time name="total">   10.48   10.44</time>
   <energy>
    <i name="e_fr_energy">   -885.78486462 </i>
    <i name="e_wo_entrp">   -885.78486462 </i>
    <i name="e_0_energy">   -885.78486462 </i>
   </energy>
  </scstep>
  <scstep>
   <time name="diag">    1.63    1.63</time>
   <time name="diis">    6.68    6.63</time>
   <time name="orth">    0.05    0.05</time>
   <time name="total">   10.46   10.41</time>
   <energy>
    <i name="e_fr_energy">   -877.81223563 </i>
    <i name="e_wo_entrp">   -877.81223563 </i>
    <i name="e_0_energy">   -877.81223563 </i>
   </energy>
  </scstep>
  <scstep>
   <time name="diag">    1.64    1.64</time>
   <time name="diis">    6.69    6.65</time>
   <time name="orth">    0.05    0.05</time>
   <time name="total">   10.48   10.43</time>
   <energy>
    <i name="e_fr_energy">   -877.40997643 </i>
    <i name="e_wo_entrp">   -877.40997643 </i>
    <i name="e_0_energy">   -877.40997643 </i>
   </energy>
  </scstep>
  <scstep>
   <time name="diag">    1.64    1.64</time>
   <time name="diis">    6.66    6.62</time>
   <time name="orth">    0.05    0.05</time>
   <time name="total">   10.46   10.42</time>
   <energy>
    <i name="e_fr_energy">   -877.11092978 </i>
    <i name="e_wo_entrp">   -877.11092978 </i>
    <i name="e_0_energy">   -877.11092978 </i>
   </energy>
  </scstep>
  <scstep>
   <time name="diag">    1.64    1.63</time>
   <time name="diis">    6.80    6.75</time>
   <time name="orth">    0.05    0.05</time>
   <time name="total">   10.59   10.54</time>
   <energy>
    <i name="e_fr_energy">   -877.11378355 </i>
    <i name="e_wo_entrp">   -877.11378355 </i>
    <i name="e_0_energy">   -877.11378355 </i>
   </energy>
  </scstep>
  <scstep>
   <time name="diag">    1.64    1.64</time>
   <time name="diis">    6.64    6.59</time>
   <time name="orth">    0.05    0.05</time>
   <time name="total">   10.43   10.38</time>
   <energy>
    <i name="e_fr_energy">   -877.10394646 </i>
    <i name="e_wo_entrp">   -877.10394646 </i>
    <i name="e_0_energy">   -877.10394646 </i>
   </energy>
  </scstep>
  <scstep>
   <time name="diag">    1.64    1.64</time>
   <time name="diis">    6.75    6.70</time>
   <time name="orth">    0.05    0.05</time>
   <time name="total">   10.54   10.49</time>
   <energy>
    <i name="e_fr_energy">   -877.10550041 </i>
    <i name="e_wo_entrp">   -877.10550041 </i>
    <i name="e_0_energy">   -877.10550041 </i>
   </energy>
  </scstep>
  <scstep>
   <time name="diag">    1.63    1.63</time>
   <time name="diis">    6.86    6.81</time>
   <time name="orth">    0.05    0.05</time>
   <time name="total">   10.63   10.58</time>
   <energy>
    <i name="e_fr_energy">   -877.10493311 </i>
    <i name="e_wo_entrp">   -877.10493311 </i>
    <i name="e_0_energy">   -877.10493311 </i>
   </energy>
  </scstep>
  <scstep>
   <time name="diag">    1.64    1.64</time>
   <time name="diis">    6.64    6.59</time>
   <time name="orth">    0.05    0.05</time>
   <time name="total">   10.43   10.39</time>
   <energy>
    <i name="e_fr_energy">   -877.10495713 </i>
    <i name="e_wo_entrp">   -877.10495713 </i>
    <i name="e_0_energy">   -877.10495713 </i>
   </energy>
  </scstep>
  <scstep>
   <time name="diag">    1.64    1.64</time>
   <time name="diis">    6.74    6.69</time>
   <time name="orth">    0.05    0.05</time>
   <time name="total">   10.55   10.50</time>
   <energy>
    <i name="e_fr_energy">   -877.10493464 </i>
    <i name="e_wo_entrp">   -877.10493464 </i>
    <i name="e_0_energy">   -877.10493464 </i>
   </energy>
  </scstep>
  <scstep>
   <time name="diag">    1.63    1.63</time>
   <time name="diis">    6.65    6.61</time>
   <time name="orth">    0.05    0.05</time>
   <time name="total">   10.43   10.39</time>
   <energy>
    <i name="e_fr_energy">   -877.10493162 </i>
    <i name="e_wo_entrp">   -877.10493162 </i>
    <i name="e_0_energy">   -877.10493162 </i>
   </energy>
  </scstep>
  <scstep>
   <time name="diag">    1.63    1.63</time>
   <time name="diis">    6.58    6.53</time>
   <time name="orth">    0.05    0.05</time>
   <time name="total">   10.36   10.32</time>
   <energy>
    <i name="e_fr_energy">   -877.10493286 </i>
    <i name="e_wo_entrp">   -877.10493286 </i>
    <i name="e_0_energy">   -877.10493286 </i>
   </energy>
  </scstep>
  <scstep>
   <time name="diag">    1.64    1.64</time>
   <time name="diis">    5.58    5.55</time>
   <time name="orth">    0.05    0.05</time>
   <time name="total">    9.39    9.36</time>
   <energy>
    <i name="e_fr_energy">   -877.10493443 </i>
    <i name="e_wo_entrp">   -877.10493443 </i>
    <i name="e_0_energy">   -877.10493443 </i>
   </energy>
  </scstep>
  <scstep>
   <time name="diag">    1.64    1.64</time>
   <time name="diis">    4.29    4.28</time>
   <time name="orth">    0.05    0.05</time>
   <time name="total">    6.26    6.25</time>
   <energy>
    <i name="alphaZ">   1172.74051251 </i>
    <i name="ewald"> -11584.48990699 </i>
    <i name="hartreedc">  -1529.30577773 </i>
    <i name="XCdc">   1046.37174383 </i>
    <i name="pawpsdc">  35275.74834982 </i>
    <i name="pawaedc"> -35217.51845661 </i>
    <i name="eentropy">      0.00000000 </i>
    <i name="bandstr">   -404.62841556 </i>
    <i name="atom">  10363.97701633 </i>
    <i name="e_fr_energy">   -877.10493440 </i>
    <i name="e_wo_entrp">   -877.10493440 </i>
    <i name="e_0_energy">   -877.10493440 </i>
   </energy>
  </scstep>
  <structure>
   <crystal>
    <varray name="basis" >
     <v>       9.33102100       0.05018900       4.19114300 </v>
     <v>       2.70338200       9.09957000       4.28584700 </v>
     <v>      -0.05195600       0.07203300      10.40806300 </v>
    </varray>
    <i name="volume">    882.22430671 </i>
    <varray name="rec_basis" >
     <v>       0.10700246      -0.03214562       0.00075662 </v>
     <v>      -0.00024990       0.11032978      -0.00076483 </v>
     <v>      -0.04298510      -0.03248728       0.09608962 </v>
    </varray>
   </crystal>
   <varray name="positions" >
    <v>       0.15792300       0.40375800       0.40375800 </v>
    <v>       0.15792300       0.40375800       0.90375800 </v>
    <v>       0.15792300       0.90375800       0.40375800 </v>
    <v>       0.15792300       0.90375800       0.90375800 </v>
    <v>       0.65792300       0.40375800       0.40375800 </v>
    <v>       0.65792300       0.40375800       0.90375800 </v>
    <v>       0.65792300       0.90375800       0.40375800 </v>
    <v>       0.65792300       0.90375800       0.90375800 </v>
    <v>       0.40163200       0.40233800       0.15722000 </v>
    <v>       0.40163200       0.40233800       0.65722000 </v>
    <v>       0.40163200       0.90233800       0.15722000 </v>
    <v>       0.40163200       0.90233800       0.65722000 </v>
    <v>       0.90163200       0.40233800       0.15722000 </v>
    <v>       0.90163200       0.40233800       0.65722000 </v>
    <v>       0.90163200       0.90233800       0.15722000 </v>
    <v>       0.90163200       0.90233800       0.65722000 </v>
    <v>       0.40163200       0.15722000       0.40233800 </v>
    <v>       0.40163200       0.15722000       0.90233800 </v>
    <v>       0.40163200       0.65722000       0.40233800 </v>
    <v>       0.40163200       0.65722000       0.90233800 </v>
    <v>       0.90163200       0.15722000       0.40233800 </v>
    <v>       0.90163200       0.15722000       0.90233800 </v>
    <v>       0.90163200       0.65722000       0.40233800 </v>
    <v>       0.90163200       0.65722000       0.90233800 </v>
    <v>       0.34136600       0.09666500       0.09666500 </v>
    <v>       0.34136600       0.09666500       0.59666500 </v>
    <v>       0.34136600       0.59666500       0.09666500 </v>
    <v>       0.34136600       0.59666500       0.59666500 </v>
    <v>       0.84136600       0.09666500       0.09666500 </v>
    <v>       0.84136600       0.09666500       0.59666500 </v>
    <v>       0.84136600       0.59666500       0.09666500 </v>
    <v>       0.84136600       0.59666500       0.59666500 </v>
    <v>       0.09870000       0.09683600       0.34371100 </v>
    <v>       0.09870000       0.09683600       0.84371100 </v>
    <v>       0.09870000       0.59683600       0.34371100 </v>
    <v>       0.09870000       0.59683600       0.84371100 </v>
    <v>       0.59870000       0.09683600       0.34371100 </v>
    <v>       0.59870000       0.09683600       0.84371100 </v>
    <v>       0.59870000       0.59683600       0.34371100 </v>
    <v>       0.59870000       0.59683600       0.84371100 </v>
    <v>       0.09870000       0.34371100       0.09683600 </v>
    <v>       0.09870000       0.34371100       0.59683600 </v>
    <v>       0.09870000       0.84371100       0.09683600 </v>
    <v>       0.09870000       0.84371100       0.59683600 </v>
    <v>       0.59870000       0.34371100       0.09683600 </v>
    <v>       0.59870000       0.34371100       0.59683600 </v>
    <v>       0.59870000       0.84371100       0.09683600 </v>
    <v>       0.59870000       0.84371100       0.59683600 </v>
    <v>       0.49444700       0.49739900       0.33679800 </v>
    <v>       0.49444700       0.49739900       0.83679800 </v>
    <v>       0.49444700       0.99739900       0.33679800 </v>
    <v>       0.49444700       0.99739900       0.83679800 </v>
    <v>       0.99444700       0.49739900       0.33679800 </v>
    <v>       0.99444700       0.49739900       0.83679800 </v>
    <v>       0.99444700       0.99739900       0.33679800 </v>
    <v>       0.99444700       0.99739900       0.83679800 </v>
    <v>       0.49444700       0.33679800       0.49739900 </v>
    <v>       0.49444700       0.33679800       0.99739900 </v>
    <v>       0.49444700       0.83679800       0.49739900 </v>
    <v>       0.49444700       0.83679800       0.99739900 </v>
    <v>       0.99444700       0.33679800       0.49739900 </v>
    <v>       0.99444700       0.33679800       0.99739900 </v>
    <v>       0.99444700       0.83679800       0.49739900 </v>
    <v>       0.99444700       0.83679800       0.99739900 </v>
    <v>       0.17079500       0.00295000       0.00295000 </v>
    <v>       0.17079500       0.00295000       0.50295000 </v>
    <v>       0.17079500       0.50295000       0.00295000 </v>
    <v>       0.17079500       0.50295000       0.50295000 </v>
    <v>       0.67079500       0.00295000       0.00295000 </v>
    <v>       0.67079500       0.00295000       0.50295000 </v>
    <v>       0.67079500       0.50295000       0.00295000 </v>
    <v>       0.67079500       0.50295000       0.50295000 </v>
    <v>       0.00347500       0.00275500       0.16436200 </v>
    <v>       0.00347500       0.00275500       0.66436200 </v>
    <v>       0.00347500       0.50275500       0.16436200 </v>
    <v>       0.00347500       0.50275500       0.66436200 </v>
    <v>       0.50347500       0.00275500       0.16436200 </v>
    <v>       0.50347500       0.00275500       0.66436200 </v>
    <v>       0.50347500       0.50275500       0.16436200 </v>
    <v>       0.50347500       0.50275500       0.66436200 </v>
    <v>       0.00347500       0.16436200       0.00275500 </v>
    <v>       0.00347500       0.16436200       0.50275500 </v>
    <v>       0.00347500       0.66436200       0.00275500 </v>
    <v>       0.00347500       0.66436200       0.50275500 </v>
    <v>       0.50347500       0.16436200       0.00275500 </v>
    <v>       0.50347500       0.16436200       0.50275500 </v>
    <v>       0.50347500       0.66436200       0.00275500 </v>
    <v>       0.50347500       0.66436200       0.50275500 </v>
    <v>       0.24799500       0.24900900       0.24900900 </v>
    <v>       0.24799500       0.24900900       0.74900900 </v>
    <v>       0.24799500       0.74900900       0.24900900 </v>
    <v>       0.24799500       0.74900900       0.74900900 </v>
    <v>       0.74799500       0.24900900       0.24900900 </v>
    <v>       0.74799500       0.24900900       0.74900900 </v>
    <v>       0.74799500       0.74900900       0.24900900 </v>
    <v>       0.74799500       0.74900900       0.74900900 </v>
    <v>       0.33833600       0.49792800       0.49792800 </v>
    <v>       0.33833600       0.49792800       0.99792800 </v>
    <v>       0.33833600       0.99792800       0.49792800 </v>
    <v>       0.33833600       0.99792800       0.99792800 </v>
    <v>       0.83833600       0.49792800       0.49792800 </v>
    <v>       0.83833600       0.49792800       0.99792800 </v>
    <v>       0.83833600       0.99792800       0.49792800 </v>
    <v>       0.83833600       0.99792800       0.99792800 </v>
    <v>       0.30608800       0.30943700       0.30943700 </v>
    <v>       0.30608800       0.30943700       0.80943700 </v>
    <v>       0.30608800       0.80943700       0.30943700 </v>
    <v>       0.30608800       0.80943700       0.80943700 </v>
    <v>       0.80608800       0.30943700       0.30943700 </v>
    <v>       0.80608800       0.30943700       0.80943700 </v>
    <v>       0.80608800       0.80943700       0.30943700 </v>
    <v>       0.80608800       0.80943700       0.80943700 </v>
    <v>       0.19098900       0.18883500       0.18883500 </v>
    <v>       0.19098900       0.18883500       0.68883500 </v>
    <v>       0.19098900       0.68883500       0.18883500 </v>
    <v>       0.19098900       0.68883500       0.68883500 </v>
    <v>       0.69098900       0.18883500       0.18883500 </v>
    <v>       0.69098900       0.18883500       0.68883500 </v>
    <v>       0.69098900       0.68883500       0.18883500 </v>
    <v>       0.69098900       0.68883500       0.68883500 </v>
   </varray>
  </structure>
  <varray name="forces" >
   <v>      -0.06917151      -0.05034796      -0.05168997 </v>
   <v>      -0.06917151      -0.05034796      -0.05168997 </v>
   <v>      -0.06917151      -0.05034796      -0.05168997 </v>
   <v>      -0.06917151      -0.05034796      -0.05168997 </v>
   <v>      -0.06917151      -0.05034796      -0.05168997 </v>
   <v>      -0.06917151      -0.05034796      -0.05168997 </v>
   <v>      -0.06917151      -0.05034796      -0.05168997 </v>
   <v>      -0.06917151      -0.05034796      -0.05168997 </v>
   <v>      -0.04063636      -0.16967182       0.07319213 </v>
   <v>      -0.04063636      -0.16967182       0.07319213 </v>
   <v>      -0.04063636      -0.16967182       0.07319213 </v>
   <v>      -0.04063636      -0.16967182       0.07319213 </v>
   <v>      -0.04063636      -0.16967182       0.07319213 </v>
   <v>      -0.04063636      -0.16967182       0.07319213 </v>
   <v>      -0.04063636      -0.16967182       0.07319213 </v>
   <v>      -0.04063636      -0.16967182       0.07319213 </v>
   <v>       0.02391786       0.10380147      -0.12489339 </v>
   <v>       0.02391786       0.10380147      -0.12489339 </v>
   <v>       0.02391786       0.10380147      -0.12489339 </v>
   <v>       0.02391786       0.10380147      -0.12489339 </v>
   <v>       0.02391786       0.10380147      -0.12489339 </v>
   <v>       0.02391786       0.10380147      -0.12489339 </v>
   <v>       0.02391786       0.10380147      -0.12489339 </v>
   <v>       0.02391786       0.10380147      -0.12489339 </v>
   <v>       0.02406184       0.07341080       0.06908158 </v>
   <v>       0.02406184       0.07341080       0.06908158 </v>
   <v>       0.02406184       0.07341080       0.06908158 </v>
   <v>       0.02406184       0.07341080       0.06908158 </v>
   <v>       0.02406184       0.07341080       0.06908158 </v>
   <v>       0.02406184       0.07341080       0.06908158 </v>
   <v>       0.02406184       0.07341080       0.06908158 </v>
   <v>       0.02406184       0.07341080       0.06908158 </v>
   <v>       0.00546300       0.14070352      -0.01478496 </v>
   <v>       0.00546300       0.14070352      -0.01478496 </v>
   <v>       0.00546300       0.14070352      -0.01478496 </v>
   <v>       0.00546300       0.14070352      -0.01478496 </v>
   <v>       0.00546300       0.14070352      -0.01478496 </v>
   <v>       0.00546300       0.14070352      -0.01478496 </v>
   <v>       0.00546300       0.14070352      -0.01478496 </v>
   <v>       0.00546300       0.14070352      -0.01478496 </v>
   <v>      -0.02022857      -0.02110979       0.11868635 </v>
   <v>      -0.02022857      -0.02110979       0.11868635 </v>
   <v>      -0.02022857      -0.02110979       0.11868635 </v>
   <v>      -0.02022857      -0.02110979       0.11868635 </v>
   <v>      -0.02022857      -0.02110979       0.11868635 </v>
   <v>      -0.02022857      -0.02110979       0.11868635 </v>
   <v>      -0.02022857      -0.02110979       0.11868635 </v>
   <v>      -0.02022857      -0.02110979       0.11868635 </v>
   <v>       0.01377468       0.01666714       0.07621651 </v>
   <v>       0.01377468       0.01666714       0.07621651 </v>
   <v>       0.01377468       0.01666714       0.07621651 </v>
   <v>       0.01377468       0.01666714       0.07621651 </v>
   <v>       0.01377468       0.01666714       0.07621651 </v>
   <v>       0.01377468       0.01666714       0.07621651 </v>
   <v>       0.01377468       0.01666714       0.07621651 </v>
   <v>       0.01377468       0.01666714       0.07621651 </v>
   <v>       0.04756000       0.06805179       0.04173134 </v>
   <v>       0.04756000       0.06805179       0.04173134 </v>
   <v>       0.04756000       0.06805179       0.04173134 </v>
   <v>       0.04756000       0.06805179       0.04173134 </v>
   <v>       0.04756000       0.06805179       0.04173134 </v>
   <v>       0.04756000       0.06805179       0.04173134 </v>
   <v>       0.04756000       0.06805179       0.04173134 </v>
   <v>       0.04756000       0.06805179       0.04173134 </v>
   <v>      -0.24907292       0.05464767       0.01440360 </v>
   <v>      -0.24907292       0.05464767       0.01440360 </v>
   <v>      -0.24907292       0.05464767       0.01440360 </v>
   <v>      -0.24907292       0.05464767       0.01440360 </v>
   <v>      -0.24907292       0.05464767       0.01440360 </v>
   <v>      -0.24907292       0.05464767       0.01440360 </v>
   <v>      -0.24907292       0.05464767       0.01440360 </v>
   <v>      -0.24907292       0.05464767       0.01440360 </v>
   <v>       0.03450931       0.02222527      -0.00586407 </v>
   <v>       0.03450931       0.02222527      -0.00586407 </v>
   <v>       0.03450931       0.02222527      -0.00586407 </v>
   <v>       0.03450931       0.02222527      -0.00586407 </v>
   <v>       0.03450931       0.02222527      -0.00586407 </v>
   <v>       0.03450931       0.02222527      -0.00586407 </v>
   <v>       0.03450931       0.02222527      -0.00586407 </v>
   <v>       0.03450931       0.02222527      -0.00586407 </v>
   <v>      -0.01631804      -0.02577389       0.03832320 </v>
   <v>      -0.01631804      -0.02577389       0.03832320 </v>
   <v>      -0.01631804      -0.02577389       0.03832320 </v>
   <v>      -0.01631804      -0.02577389       0.03832320 </v>
   <v>      -0.01631804      -0.02577389       0.03832320 </v>
   <v>      -0.01631804      -0.02577389       0.03832320 </v>
   <v>      -0.01631804      -0.02577389       0.03832320 </v>
   <v>      -0.01631804      -0.02577389       0.03832320 </v>
   <v>       0.09356567       0.13826956       0.23354537 </v>
   <v>       0.09356567       0.13826956       0.23354537 </v>
   <v>       0.09356567       0.13826956       0.23354537 </v>
   <v>       0.09356567       0.13826956       0.23354537 </v>
   <v>       0.09356567       0.13826956       0.23354537 </v>
   <v>       0.09356567       0.13826956       0.23354537 </v>
   <v>       0.09356567       0.13826956       0.23354537 </v>
   <v>       0.09356567       0.13826956       0.23354537 </v>
   <v>       0.30998434      -0.03904756       0.04664734 </v>
   <v>       0.30998434      -0.03904756       0.04664734 </v>
   <v>       0.30998434      -0.03904756       0.04664734 </v>
   <v>       0.30998434      -0.03904756       0.04664734 </v>
   <v>       0.30998434      -0.03904756       0.04664734 </v>
   <v>       0.30998434      -0.03904756       0.04664734 </v>
   <v>       0.30998434      -0.03904756       0.04664734 </v>
   <v>       0.30998434      -0.03904756       0.04664734 </v>
   <v>      -0.11177030      -0.00955562      -0.21700459 </v>
   <v>      -0.11177030      -0.00955562      -0.21700459 </v>
   <v>      -0.11177030      -0.00955562      -0.21700459 </v>
   <v>      -0.11177030      -0.00955562      -0.21700459 </v>
   <v>      -0.11177030      -0.00955562      -0.21700459 </v>
   <v>      -0.11177030      -0.00955562      -0.21700459 </v>
   <v>      -0.11177030      -0.00955562      -0.21700459 </v>
   <v>      -0.11177030      -0.00955562      -0.21700459 </v>
   <v>      -0.04563901      -0.30227058      -0.29759045 </v>
   <v>      -0.04563901      -0.30227058      -0.29759045 </v>
   <v>      -0.04563901      -0.30227058      -0.29759045 </v>
   <v>      -0.04563901      -0.30227058      -0.29759045 </v>
   <v>      -0.04563901      -0.30227058      -0.29759045 </v>
   <v>      -0.04563901      -0.30227058      -0.29759045 </v>
   <v>      -0.04563901      -0.30227058      -0.29759045 </v>
   <v>      -0.04563901      -0.30227058      -0.29759045 </v>
  </varray>
  <varray name="stress" >
   <v>     -63.12808954      -0.55144687      -0.43119014 </v>
   <v>      -0.55144684      -8.45921743       3.28513990 </v>
   <v>      -0.43119012       3.28513985      -8.53774904 </v>
  </varray>
  <energy>
   <i name="e_fr_energy">   -877.10493440 </i>
   <i name="e_wo_entrp">   -877.10493440 </i>
   <i name="e_0_energy">   -877.10493440 </i>
  </energy>
  <time name="totalsc">  209.18  208.66</time>
 </calculation>
 <calculation>
  <scstep>
   <time name="dav">    8.12    8.12</time>
   <time name="total">   10.22   10.21</time>
   <energy>
    <i name="alphaZ">   1172.74051251 </i>
    <i name="ewald"> -11578.94398066 </i>
    <i name="hartreedc">  -1534.04956595 </i>
    <i name="XCdc">   1046.44335409 </i>
    <i name="pawpsdc">  35275.63997662 </i>
    <i name="pawaedc"> -35217.41018661 </i>
    <i name="eentropy">      0.00000000 </i>
    <i name="bandstr">   -405.54300852 </i>
    <i name="atom">  10363.97701633 </i>
    <i name="e_fr_energy">   -877.14588220 </i>
    <i name="e_wo_entrp">   -877.14588220 </i>
    <i name="e_0_energy">   -877.14588220 </i>
   </energy>
  </scstep>
  <scstep>
   <time name="diag">    1.64    1.64</time>
   <time name="diis">    6.65    6.61</time>
   <time name="orth">    0.05    0.05</time>
   <time name="total">   10.43   10.38</time>
   <energy>
    <i name="e_fr_energy">   -877.10095404 </i>
    <i name="e_wo_entrp">   -877.10095404 </i>
    <i name="e_0_energy">   -877.10095404 </i>
   </energy>
  </scstep>
  <scstep>
   <time name="diag">    1.64    1.64</time>
   <time name="diis">    6.64    6.59</time>
   <time name="orth">    0.05    0.05</time>
   <time name="total">   10.43   10.38</time>
   <energy>
    <i name="e_fr_energy">   -877.06868558 </i>
    <i name="e_wo_entrp">   -877.06868558 </i>
    <i name="e_0_energy">   -877.06868558 </i>
   </energy>
  </scstep>
  <scstep>
   <time name="diag">    1.64    1.64</time>
   <time name="diis">    6.73    6.68</time>
   <time name="orth">    0.05    0.05</time>
   <time name="total">   10.51   10.46</time>
   <energy>
    <i name="e_fr_energy">   -877.07005414 </i>
    <i name="e_wo_entrp">   -877.07005414 </i>
    <i name="e_0_energy">   -877.07005414 </i>
   </energy>
  </scstep>
  <scstep>
   <time name="diag">    1.64    1.63</time>
   <time name="diis">    6.70    6.66</time>
   <time name="orth">    0.05    0.05</time>
   <time name="total">   10.49   10.45</time>
   <energy>
    <i name="e_fr_energy">   -877.07029014 </i>
    <i name="e_wo_entrp">   -877.07029014 </i>
    <i name="e_0_energy">   -877.07029014 </i>
   </energy>
  </scstep>
  <scstep>
   <time name="diag">    1.64    1.64</time>
   <time name="diis">    6.79    6.74</time>
   <time name="orth">    0.05    0.05</time>
   <time name="total">   10.59   10.54</time>
   <energy>
    <i name="e_fr_energy">   -877.07033096 </i>
    <i name="e_wo_entrp">   -877.07033096 </i>
    <i name="e_0_energy">   -877.07033096 </i>
   </energy>
  </scstep>
  <scstep>
   <time name="diag">    1.65    1.64</time>
   <time name="diis">    6.69    6.65</time>
   <time name="orth">    0.05    0.05</time>
   <time name="total">   10.48   10.43</time>
   <energy>
    <i name="e_fr_energy">   -877.07035275 </i>
    <i name="e_wo_entrp">   -877.07035275 </i>
    <i name="e_0_energy">   -877.07035275 </i>
   </energy>
  </scstep>
  <scstep>
   <time name="diag">    1.64    1.64</time>
   <time name="diis">    6.77    6.72</time>
   <time name="orth">    0.05    0.05</time>
   <time name="total">   10.57   10.53</time>
   <energy>
    <i name="e_fr_energy">   -877.07035400 </i>
    <i name="e_wo_entrp">   -877.07035400 </i>
    <i name="e_0_energy">   -877.07035400 </i>
   </energy>
  </scstep>
  <scstep>
   <time name="diag">    1.64    1.64</time>
   <time name="diis">    6.87    6.82</time>
   <time name="orth">    0.05    0.05</time>
   <time name="total">   10.66   10.61</time>
   <energy>
    <i name="e_fr_energy">   -877.07035609 </i>
    <i name="e_wo_entrp">   -877.07035609 </i>
    <i name="e_0_energy">   -877.07035609 </i>
   </energy>
  </scstep>
  <scstep>
   <time name="diag">    1.65    1.65</time>
   <time name="diis">    5.21    5.19</time>
   <time name="orth">    0.05    0.05</time>
   <time name="total">    7.19    7.17</time>
   <energy>
    <i name="alphaZ">   1172.74051251 </i>
    <i name="ewald"> -11578.94398066 </i>
    <i name="hartreedc">  -1535.25635427 </i>
    <i name="XCdc">   1046.42007568 </i>
    <i name="pawpsdc">  35258.84280284 </i>
    <i name="pawaedc"> -35200.59324077 </i>
    <i name="eentropy">      0.00000000 </i>
    <i name="bandstr">   -404.25718792 </i>
    <i name="atom">  10363.97701633 </i>
    <i name="e_fr_energy">   -877.07035626 </i>
    <i name="e_wo_entrp">   -877.07035626 </i>
    <i name="e_0_energy">   -877.07035626 </i>
   </energy>
  </scstep>
  <structure>
   <crystal>
    <varray name="basis" >
     <v>       9.25553848       0.05230147       4.20721670 </v>
     <v>       2.68011096       9.13926788       4.30951694 </v>
     <v>      -0.05254025       0.07990072      10.45015816 </v>
    </varray>
    <i name="volume">    882.22430671 </i>
    <varray name="rec_basis" >
     <v>       0.10786651      -0.03200321       0.00078701 </v>
     <v>      -0.00023849       0.10988463      -0.00084136 </v>
     <v>      -0.04332853      -0.03243063       0.09572245 </v>
    </varray>
   </crystal>
   <varray name="positions" >
    <v>       0.15764212       0.40349276       0.40374074 </v>
    <v>       0.15764212       0.40349276       0.90374074 </v>
    <v>       0.15764212       0.90349276       0.40374074 </v>
    <v>       0.15764212       0.90349276       0.90374074 </v>
    <v>       0.65764212       0.40349276       0.40374074 </v>
    <v>       0.65764212       0.40349276       0.90374074 </v>
    <v>       0.65764212       0.90349276       0.40374074 </v>
    <v>       0.65764212       0.90349276       0.90374074 </v>
    <v>       0.40168803       0.40143269       0.15790948 </v>
    <v>       0.40168803       0.40143269       0.65790948 </v>
    <v>       0.40168803       0.90143269       0.15790948 </v>
    <v>       0.40168803       0.90143269       0.65790948 </v>
    <v>       0.90168803       0.40143269       0.15790948 </v>
    <v>       0.90168803       0.40143269       0.65790948 </v>
    <v>       0.90168803       0.90143269       0.15790948 </v>
    <v>       0.90168803       0.90143269       0.65790948 </v>
    <v>       0.40158993       0.15777681       0.40154676 </v>
    <v>       0.40158993       0.15777681       0.90154676 </v>
    <v>       0.40158993       0.65777681       0.40154676 </v>
    <v>       0.40158993       0.65777681       0.90154676 </v>
    <v>       0.90158993       0.15777681       0.40154676 </v>
    <v>       0.90158993       0.15777681       0.90154676 </v>
    <v>       0.90158993       0.65777681       0.40154676 </v>
    <v>       0.90158993       0.65777681       0.90154676 </v>
    <v>       0.34137889       0.09705290       0.09682028 </v>
    <v>       0.34137889       0.09705290       0.59682028 </v>
    <v>       0.34137889       0.59705290       0.09682028 </v>
    <v>       0.34137889       0.59705290       0.59682028 </v>
    <v>       0.84137889       0.09705290       0.09682028 </v>
    <v>       0.84137889       0.09705290       0.59682028 </v>
    <v>       0.84137889       0.59705290       0.09682028 </v>
    <v>       0.84137889       0.59705290       0.59682028 </v>
    <v>       0.09850946       0.09758539       0.34341061 </v>
    <v>       0.09850946       0.09758539       0.84341061 </v>
    <v>       0.09850946       0.59758539       0.34341061 </v>
    <v>       0.09850946       0.59758539       0.84341061 </v>
    <v>       0.59850946       0.09758539       0.34341061 </v>
    <v>       0.59850946       0.09758539       0.84341061 </v>
    <v>       0.59850946       0.59758539       0.34341061 </v>
    <v>       0.59850946       0.59758539       0.84341061 </v>
    <v>       0.09863265       0.34359451       0.09746122 </v>
    <v>       0.09863265       0.34359451       0.59746122 </v>
    <v>       0.09863265       0.84359451       0.09746122 </v>
    <v>       0.09863265       0.84359451       0.59746122 </v>
    <v>       0.59863265       0.34359451       0.09746122 </v>
    <v>       0.59863265       0.34359451       0.59746122 </v>
    <v>       0.59863265       0.84359451       0.09746122 </v>
    <v>       0.59863265       0.84359451       0.59746122 </v>
    <v>       0.49449504       0.49748473       0.33709662 </v>
    <v>       0.49449504       0.49748473       0.83709662 </v>
    <v>       0.49449504       0.99748473       0.33709662 </v>
    <v>       0.49449504       0.99748473       0.83709662 </v>
    <v>       0.99449504       0.49748473       0.33709662 </v>
    <v>       0.99449504       0.49748473       0.83709662 </v>
    <v>       0.99449504       0.99748473       0.33709662 </v>
    <v>       0.99449504       0.99748473       0.83709662 </v>
    <v>       0.49458850       0.33715810       0.49738717 </v>
    <v>       0.49458850       0.33715810       0.99738717 </v>
    <v>       0.49458850       0.83715810       0.49738717 </v>
    <v>       0.49458850       0.83715810       0.99738717 </v>
    <v>       0.99458850       0.33715810       0.49738717 </v>
    <v>       0.99458850       0.33715810       0.99738717 </v>
    <v>       0.99458850       0.83715810       0.49738717 </v>
    <v>       0.99458850       0.83715810       0.99738717 </v>
    <v>       0.16942504       0.00324334       0.00344763 </v>
    <v>       0.16942504       0.00324334       0.50344763 </v>
    <v>       0.16942504       0.50324334       0.00344763 </v>
    <v>       0.16942504       0.50324334       0.50344763 </v>
    <v>       0.66942504       0.00324334       0.00344763 </v>
    <v>       0.66942504       0.00324334       0.50344763 </v>
    <v>       0.66942504       0.50324334       0.00344763 </v>
    <v>       0.66942504       0.50324334       0.50344763 </v>
    <v>       0.00361846       0.00287310       0.16422842 </v>
    <v>       0.00361846       0.00287310       0.66422842 </v>
    <v>       0.00361846       0.50287310       0.16422842 </v>
    <v>       0.00361846       0.50287310       0.66422842 </v>
    <v>       0.50361846       0.00287310       0.16422842 </v>
    <v>       0.50361846       0.00287310       0.66422842 </v>
    <v>       0.50361846       0.50287310       0.16422842 </v>
    <v>       0.50361846       0.50287310       0.66422842 </v>
    <v>       0.00343213       0.16422360       0.00300689 </v>
    <v>       0.00343213       0.16422360       0.50300689 </v>
    <v>       0.00343213       0.66422360       0.00300689 </v>
    <v>       0.00343213       0.66422360       0.50300689 </v>
    <v>       0.50343213       0.16422360       0.00300689 </v>
    <v>       0.50343213       0.16422360       0.50300689 </v>
    <v>       0.50343213       0.66422360       0.00300689 </v>
    <v>       0.50343213       0.66422360       0.50300689 </v>
    <v>       0.24827209       0.24973521       0.24968089 </v>
    <v>       0.24827209       0.24973521       0.74968089 </v>
    <v>       0.24827209       0.74973521       0.24968089 </v>
    <v>       0.24827209       0.74973521       0.74968089 </v>
    <v>       0.74827209       0.24973521       0.24968089 </v>
    <v>       0.74827209       0.24973521       0.74968089 </v>
    <v>       0.74827209       0.74973521       0.24968089 </v>
    <v>       0.74827209       0.74973521       0.74968089 </v>
    <v>       0.33999842       0.49771471       0.49756262 </v>
    <v>       0.33999842       0.49771471       0.99756262 </v>
    <v>       0.33999842       0.99771471       0.49756262 </v>
    <v>       0.33999842       0.99771471       0.99756262 </v>
    <v>       0.83999842       0.49771471       0.49756262 </v>
    <v>       0.83999842       0.49771471       0.99756262 </v>
    <v>       0.83999842       0.99771471       0.49756262 </v>
    <v>       0.83999842       0.99771471       0.99756262 </v>
    <v>       0.30551793       0.30939549       0.30867781 </v>
    <v>       0.30551793       0.30939549       0.80867781 </v>
    <v>       0.30551793       0.80939549       0.30867781 </v>
    <v>       0.30551793       0.80939549       0.80867781 </v>
    <v>       0.80551793       0.30939549       0.30867781 </v>
    <v>       0.80551793       0.30939549       0.80867781 </v>
    <v>       0.80551793       0.80939549       0.30867781 </v>
    <v>       0.80551793       0.80939549       0.80867781 </v>
    <v>       0.19121130       0.18723766       0.18802387 </v>
    <v>       0.19121130       0.18723766       0.68802387 </v>
    <v>       0.19121130       0.68723766       0.18802387 </v>
    <v>       0.19121130       0.68723766       0.68802387 </v>
    <v>       0.69121130       0.18723766       0.18802387 </v>
    <v>       0.69121130       0.18723766       0.68802387 </v>
    <v>       0.69121130       0.68723766       0.18802387 </v>
    <v>       0.69121130       0.68723766       0.68802387 </v>
   </varray>
  </structure>
  <varray name="forces" >
   <v>       0.00876956       0.13579180       0.10068425 </v>
   <v>       0.00876956       0.13579180       0.10068425 </v>
   <v>       0.00876956       0.13579180       0.10068425 </v>
   <v>       0.00876956       0.13579180       0.10068425 </v>
   <v>       0.00876956       0.13579180       0.10068425 </v>
   <v>       0.00876956       0.13579180       0.10068425 </v>
   <v>       0.00876956       0.13579180       0.10068425 </v>
   <v>       0.00876956       0.13579180       0.10068425 </v>
   <v>       0.07098311       0.17947840      -0.12597819 </v>
   <v>       0.07098311       0.17947840      -0.12597819 </v>
   <v>       0.07098311       0.17947840      -0.12597819 </v>
   <v>       0.07098311       0.17947840      -0.12597819 </v>
   <v>       0.07098311       0.17947840      -0.12597819 </v>
   <v>       0.07098311       0.17947840      -0.12597819 </v>
   <v>       0.07098311       0.17947840      -0.12597819 </v>
   <v>       0.07098311       0.17947840      -0.12597819 </v>
   <v>      -0.04377458      -0.08238418       0.04252131 </v>
   <v>      -0.04377458      -0.08238418       0.04252131 </v>
   <v>      -0.04377458      -0.08238418       0.04252131 </v>
   <v>      -0.04377458      -0.08238418       0.04252131 </v>
   <v>      -0.04377458      -0.08238418       0.04252131 </v>
   <v>      -0.04377458      -0.08238418       0.04252131 </v>
   <v>      -0.04377458      -0.08238418       0.04252131 </v>
   <v>      -0.04377458      -0.08238418       0.04252131 </v>
   <v>       0.06526196      -0.20896366      -0.18069782 </v>
   <v>       0.06526196      -0.20896366      -0.18069782 </v>
   <v>       0.06526196      -0.20896366      -0.18069782 </v>
   <v>       0.06526196      -0.20896366      -0.18069782 </v>
   <v>       0.06526196      -0.20896366      -0.18069782 </v>
   <v>       0.06526196      -0.20896366      -0.18069782 </v>
   <v>       0.06526196      -0.20896366      -0.18069782 </v>
   <v>       0.06526196      -0.20896366      -0.18069782 </v>
   <v>       0.05342504      -0.12799030       0.01303905 </v>
   <v>       0.05342504      -0.12799030       0.01303905 </v>
   <v>       0.05342504      -0.12799030       0.01303905 </v>
   <v>       0.05342504      -0.12799030       0.01303905 </v>
   <v>       0.05342504      -0.12799030       0.01303905 </v>
   <v>       0.05342504      -0.12799030       0.01303905 </v>
   <v>       0.05342504      -0.12799030       0.01303905 </v>
   <v>       0.05342504      -0.12799030       0.01303905 </v>
   <v>       0.09031670      -0.11453906      -0.01316008 </v>
   <v>       0.09031670      -0.11453906      -0.01316008 </v>
   <v>       0.09031670      -0.11453906      -0.01316008 </v>
   <v>       0.09031670      -0.11453906      -0.01316008 </v>
   <v>       0.09031670      -0.11453906      -0.01316008 </v>
   <v>       0.09031670      -0.11453906      -0.01316008 </v>
   <v>       0.09031670      -0.11453906      -0.01316008 </v>
   <v>       0.09031670      -0.11453906      -0.01316008 </v>
   <v>      -0.00568814       0.05967755       0.01777529 </v>
   <v>      -0.00568814       0.05967755       0.01777529 </v>
   <v>      -0.00568814       0.05967755       0.01777529 </v>
   <v>      -0.00568814       0.05967755       0.01777529 </v>
   <v>      -0.00568814       0.05967755       0.01777529 </v>
   <v>      -0.00568814       0.05967755       0.01777529 </v>
   <v>      -0.00568814       0.05967755       0.01777529 </v>
   <v>      -0.00568814       0.05967755       0.01777529 </v>
   <v>      -0.04779338      -0.02222641       0.06695937 </v>
   <v>      -0.04779338      -0.02222641       0.06695937 </v>
   <v>      -0.04779338      -0.02222641       0.06695937 </v>
   <v>      -0.04779338      -0.02222641       0.06695937 </v>
   <v>      -0.04779338      -0.02222641       0.06695937 </v>
   <v>      -0.04779338      -0.02222641       0.06695937 </v>
   <v>      -0.04779338      -0.02222641       0.06695937 </v>
   <v>      -0.04779338      -0.02222641       0.06695937 </v>
   <v>       0.26785293      -0.02812454       0.02755328 </v>
   <v>       0.26785293      -0.02812454       0.02755328 </v>
   <v>       0.26785293      -0.02812454       0.02755328 </v>
   <v>       0.26785293      -0.02812454       0.02755328 </v>
   <v>       0.26785293      -0.02812454       0.02755328 </v>
   <v>       0.26785293      -0.02812454       0.02755328 </v>
   <v>       0.26785293      -0.02812454       0.02755328 </v>
   <v>       0.26785293      -0.02812454       0.02755328 </v>
   <v>      -0.02756464      -0.05540178       0.09124484 </v>
   <v>      -0.02756464      -0.05540178       0.09124484 </v>
   <v>      -0.02756464      -0.05540178       0.09124484 </v>
   <v>      -0.02756464      -0.05540178       0.09124484 </v>
   <v>      -0.02756464      -0.05540178       0.09124484 </v>
   <v>      -0.02756464      -0.05540178       0.09124484 </v>
   <v>      -0.02756464      -0.05540178       0.09124484 </v>
   <v>      -0.02756464      -0.05540178       0.09124484 </v>
   <v>       0.06424264       0.11377045      -0.03319689 </v>
   <v>       0.06424264       0.11377045      -0.03319689 </v>
   <v>       0.06424264       0.11377045      -0.03319689 </v>
   <v>       0.06424264       0.11377045      -0.03319689 </v>
   <v>       0.06424264       0.11377045      -0.03319689 </v>
   <v>       0.06424264       0.11377045      -0.03319689 </v>
   <v>       0.06424264       0.11377045      -0.03319689 </v>
   <v>       0.06424264       0.11377045      -0.03319689 </v>
   <v>      -0.75359880      -0.62122588      -1.24374770 </v>
   <v>      -0.75359880      -0.62122588      -1.24374770 </v>
   <v>      -0.75359880      -0.62122588      -1.24374770 </v>
   <v>      -0.75359880      -0.62122588      -1.24374770 </v>
   <v>      -0.75359880      -0.62122588      -1.24374770 </v>
   <v>      -0.75359880      -0.62122588      -1.24374770 </v>
   <v>      -0.75359880      -0.62122588      -1.24374770 </v>
   <v>      -0.75359880      -0.62122588      -1.24374770 </v>
   <v>      -0.28141924       0.02512973      -0.06288020 </v>
   <v>      -0.28141924       0.02512973      -0.06288020 </v>
   <v>      -0.28141924       0.02512973      -0.06288020 </v>
   <v>      -0.28141924       0.02512973      -0.06288020 </v>
   <v>      -0.28141924       0.02512973      -0.06288020 </v>
   <v>      -0.28141924       0.02512973      -0.06288020 </v>
   <v>      -0.28141924       0.02512973      -0.06288020 </v>
   <v>      -0.28141924       0.02512973      -0.06288020 </v>
   <v>       0.15603808       0.20240919       0.59617352 </v>
   <v>       0.15603808       0.20240919       0.59617352 </v>
   <v>       0.15603808       0.20240919       0.59617352 </v>
   <v>       0.15603808       0.20240919       0.59617352 </v>
   <v>       0.15603808       0.20240919       0.59617352 </v>
   <v>       0.15603808       0.20240919       0.59617352 </v>
   <v>       0.15603808       0.20240919       0.59617352 </v>
   <v>       0.15603808       0.20240919       0.59617352 </v>
   <v>       0.38294875       0.54459867       0.70370997 </v>
   <v>       0.38294875       0.54459867       0.70370997 </v>
   <v>       0.38294875       0.54459867       0.70370997 </v>
   <v>       0.38294875       0.54459867       0.70370997 </v>
   <v>       0.38294875       0.54459867       0.70370997 </v>
   <v>       0.38294875       0.54459867       0.70370997 </v>
   <v>       0.38294875       0.54459867       0.70370997 </v>
   <v>       0.38294875       0.54459867       0.70370997 </v>
  </varray>
  <varray name="stress" >
   <v>     -17.52864251      -1.91570449      -5.38301950 </v>
   <v>      -1.91570453     -33.26873001       2.82485681 </v>
   <v>      -5.38301951       2.82485679     -31.66082207 </v>
  </varray>
  <energy>
   <i name="e_fr_energy">   -877.07035626 </i>
   <i name="e_wo_entrp">   -877.07035626 </i>
   <i name="e_0_energy">   -877.07035626 </i>
  </energy>
  <time name="totalsc">  120.99  120.57</time>
 </calculation>
 <calculation>
  <scstep>
   <time name="dav">    7.99    7.98</time>
   <time name="total">   10.07   10.07</time>
   <energy>
    <i name="alphaZ">   1172.74051251 </i>
    <i name="ewald"> -11582.27229554 </i>
    <i name="hartreedc">  -1532.43232264 </i>
    <i name="XCdc">   1046.37111207 </i>
    <i name="pawpsdc">  35258.69207083 </i>
    <i name="pawaedc"> -35200.44251392 </i>
    <i name="eentropy">      0.00000000 </i>
    <i name="bandstr">   -403.87445285 </i>
    <i name="atom">  10363.97701633 </i>
    <i name="e_fr_energy">   -877.24087321 </i>
    <i name="e_wo_entrp">   -877.24087321 </i>
    <i name="e_0_energy">   -877.24087321 </i>
   </energy>
  </scstep>
  <scstep>
   <time name="diag">    1.64    1.64</time>
   <time name="diis">    6.63    6.59</time>
   <time name="orth">    0.05    0.05</time>
   <time name="total">   10.41   10.37</time>
   <energy>
    <i name="e_fr_energy">   -877.22692311 </i>
    <i name="e_wo_entrp">   -877.22692311 </i>
    <i name="e_0_energy">   -877.22692311 </i>
   </energy>
  </scstep>
  <scstep>
   <time name="diag">    1.63    1.63</time>
   <time name="diis">    6.65    6.61</time>
   <time name="orth">    0.05    0.05</time>
[...]
       <r>    -6.8121    28.1212    52.7463 </r>
       <r>    -6.7256    22.2366    54.9355 </r>
       <r>    -6.6391     3.2384    55.9179 </r>
       <r>    -6.5526    11.4704    56.6622 </r>
       <r>    -6.4661    14.2380    57.7655 </r>
       <r>    -6.3796    17.8369    59.1528 </r>
       <r>    -6.2931    20.5101    60.8406 </r>
       <r>    -6.2066    14.5267    62.4373 </r>
       <r>    -6.1201     9.9158    63.4371 </r>
       <r>    -6.0335     1.6013    63.9766 </r>
       <r>    -5.9470     0.0000    64.0000 </r>
       <r>    -5.8605     7.5168    64.2147 </r>
       <r>    -5.7740    29.6958    65.7473 </r>
       <r>    -5.6875    14.9936    67.7130 </r>
       <r>    -5.6010    10.9059    68.7132 </r>
       <r>    -5.5145    30.1136    70.3790 </r>
       <r>    -5.4280    52.1353    74.5575 </r>
       <r>    -5.3415     9.8848    76.0512 </r>
       <r>    -5.2550    22.9853    77.6130 </r>
       <r>    -5.1685    36.0383    80.1453 </r>
       <r>    -5.0819    24.9842    83.1520 </r>
       <r>    -4.9954    12.6418    84.4269 </r>
       <r>    -4.9089    27.0146    87.0451 </r>
       <r>    -4.8224    10.6196    88.0931 </r>
       <r>    -4.7359    15.7361    89.2820 </r>
       <r>    -4.6494    16.2813    90.6339 </r>
       <r>    -4.5629    22.5488    92.2669 </r>
       <r>    -4.4764    17.4629    94.2491 </r>
       <r>    -4.3899     7.1455    95.1191 </r>
       <r>    -4.3034     4.0937    95.5898 </r>
       <r>    -4.2169     2.0767    95.8518 </r>
       <r>    -4.1303     0.7377    95.9686 </r>
       <r>    -4.0438     0.0766    95.9990 </r>
       <r>    -3.9573     0.0000    96.0000 </r>
       <r>    -3.8708     0.0000    96.0000 </r>
       <r>    -3.7843     4.6482    96.0912 </r>
       <r>    -3.6978     7.2730    96.6173 </r>
       <r>    -3.6113    11.0104    97.4039 </r>
       <r>    -3.5248    12.7354    98.4752 </r>
       <r>    -3.4383    13.1393    99.5871 </r>
       <r>    -3.3518    14.6758   100.7818 </r>
       <r>    -3.2653    17.3858   102.1601 </r>
       <r>    -3.1787    21.3335   103.8238 </r>
       <r>    -3.0922    27.0492   106.0540 </r>
       <r>    -3.0057    23.2958   107.9377 </r>
       <r>    -2.9192    12.0566   109.4660 </r>
       <r>    -2.8327    30.3877   111.3152 </r>
       <r>    -2.7462    26.5797   113.4559 </r>
       <r>    -2.6597    21.0515   115.7268 </r>
       <r>    -2.5732    21.7177   117.2963 </r>
       <r>    -2.4867    22.8891   119.6194 </r>
       <r>    -2.4002    13.5075   120.7887 </r>
       <r>    -2.3137    26.7779   123.2212 </r>
       <r>    -2.2271    23.4106   125.2194 </r>
       <r>    -2.1406    33.0065   128.2346 </r>
       <r>    -2.0541    28.9790   130.9036 </r>
       <r>    -1.9676    25.9942   133.1484 </r>
       <r>    -1.8811    44.0543   136.1008 </r>
       <r>    -1.7946    50.3992   140.3799 </r>
       <r>    -1.7081    36.0107   144.1461 </r>
       <r>    -1.6216    25.8571   146.6436 </r>
       <r>    -1.5351    24.7261   148.8368 </r>
       <r>    -1.4486    16.6341   150.7314 </r>
       <r>    -1.3621     6.7726   151.7170 </r>
       <r>    -1.2755    52.9150   154.1947 </r>
       <r>    -1.1890    41.5102   157.0617 </r>
       <r>    -1.1025    48.3546   161.5578 </r>
       <r>    -1.0160    30.2548   164.8450 </r>
       <r>    -0.9295    20.1680   166.8133 </r>
       <r>    -0.8430    26.5238   168.7856 </r>
       <r>    -0.7565    50.0169   172.4686 </r>
       <r>    -0.6700    25.6539   175.5056 </r>
       <r>    -0.5835    23.9752   177.6257 </r>
       <r>    -0.4970    26.2200   179.7802 </r>
       <r>    -0.4105    27.4550   182.1649 </r>
       <r>    -0.3239    21.0415   184.2871 </r>
       <r>    -0.2374    35.9195   186.1045 </r>
       <r>    -0.1509     8.2210   188.2317 </r>
       <r>    -0.0644    50.0797   190.3499 </r>
       <r>     0.0221    69.2152   196.2742 </r>
       <r>     0.1086    21.5025   199.8974 </r>
       <r>     0.1951    29.2704   201.7974 </r>
       <r>     0.2816    30.9659   205.0940 </r>
       <r>     0.3681    33.0699   207.3274 </r>
       <r>     0.4546    32.9719   210.2902 </r>
       <r>     0.5411    22.1408   212.8435 </r>
       <r>     0.6277    24.7905   214.8477 </r>
       <r>     0.7142    29.1025   217.1980 </r>
       <r>     0.8007    37.8455   220.0108 </r>
       <r>     0.8872    50.5296   224.3946 </r>
       <r>     0.9737    45.8303   228.3694 </r>
       <r>     1.0602    46.7370   232.3178 </r>
       <r>     1.1467    28.1757   236.0177 </r>
       <r>     1.2332    17.4993   237.6932 </r>
       <r>     1.3197    38.4194   240.1284 </r>
       <r>     1.4062    33.1054   243.0501 </r>
       <r>     1.4927    45.8401   246.2583 </r>
       <r>     1.5793    44.2889   250.9041 </r>
       <r>     1.6658    24.0962   253.6654 </r>
       <r>     1.7523    33.0249   256.1776 </r>
       <r>     1.8388    63.0191   260.9807 </r>
       <r>     1.9253    58.9937   266.6246 </r>
       <r>     2.0118    33.7013   270.0678 </r>
       <r>     2.0983    44.8008   274.0502 </r>
       <r>     2.1848    28.3804   276.2051 </r>
       <r>     2.2713    24.2925   279.9623 </r>
       <r>     2.3578    75.1953   285.3456 </r>
       <r>     2.4443    42.0795   289.4415 </r>
       <r>     2.5309    53.1870   293.4612 </r>
       <r>     2.6174    48.9287   297.3057 </r>
       <r>     2.7039    40.3111   301.8886 </r>
       <r>     2.7904    42.4502   304.0517 </r>
       <r>     2.8769    63.9609   308.8224 </r>
       <r>     2.9634    46.1974   314.3798 </r>
       <r>     3.0499    61.4210   317.9549 </r>
       <r>     3.1364    52.5562   323.1560 </r>
       <r>     3.2229    39.2043   326.5293 </r>
       <r>     3.3094    29.0996   329.4803 </r>
       <r>     3.3959    31.8392   331.9813 </r>
       <r>     3.4825    40.0320   334.8827 </r>
       <r>     3.5690    55.7279   339.6020 </r>
       <r>     3.6555    60.6351   344.6194 </r>
       <r>     3.7420    40.8905   348.5690 </r>
       <r>     3.8285    25.3998   351.0502 </r>
       <r>     3.9150    68.4946   355.5145 </r>
       <r>     4.0015    73.5910   362.9230 </r>
       <r>     4.0880    28.6694   365.3406 </r>
       <r>     4.1745    31.6161   367.9328 </r>
       <r>     4.2610    40.9618   371.1353 </r>
       <r>     4.3475    41.1541   374.9022 </r>
       <r>     4.4341    31.6322   378.1891 </r>
       <r>     4.5206    26.3746   380.6756 </r>
       <r>     4.6071    16.0247   382.5609 </r>
       <r>     4.6936     7.0691   383.4969 </r>
       <r>     4.7801     2.1235   383.8839 </r>
       <r>     4.8666     0.5477   383.9789 </r>
       <r>     4.9531     0.0344   383.9997 </r>
       <r>     5.0396     0.0000   384.0000 </r>
       <r>     5.1261     0.0000   384.0000 </r>
       <r>     5.2126     0.0000   384.0000 </r>
       <r>     5.2991     0.0000   384.0000 </r>
       <r>     5.3857     0.0000   384.0000 </r>
       <r>     5.4722     0.0000   384.0000 </r>
       <r>     5.5587     0.0000   384.0000 </r>
       <r>     5.6452     0.0000   384.0000 </r>
       <r>     5.7317     0.0000   384.0000 </r>
       <r>     5.8182     0.0000   384.0000 </r>
       <r>     5.9047     0.0000   384.0000 </r>
       <r>     5.9912     0.0000   384.0000 </r>
       <r>     6.0777     0.0000   384.0000 </r>
       <r>     6.1642     0.0000   384.0000 </r>
       <r>     6.2507     0.0000   384.0000 </r>
       <r>     6.3373     0.0000   384.0000 </r>
       <r>     6.4238     0.0000   384.0000 </r>
       <r>     6.5103     0.0000   384.0000 </r>
       <r>     6.5968     0.0000   384.0000 </r>
       <r>     6.6833     0.0000   384.0000 </r>
       <r>     6.7698     0.0000   384.0000 </r>
       <r>     6.8563     0.0000   384.0000 </r>
       <r>     6.9428     0.0000   384.0000 </r>
       <r>     7.0293     0.0000   384.0000 </r>
       <r>     7.1158     0.0000   384.0000 </r>
       <r>     7.2023     0.0000   384.0000 </r>
       <r>     7.2889     0.0000   384.0000 </r>
       <r>     7.3754     0.0000   384.0000 </r>
       <r>     7.4619     0.0000   384.0000 </r>
       <r>     7.5484     0.0000   384.0000 </r>
       <r>     7.6349     0.0000   384.0000 </r>
       <r>     7.7214     0.0000   384.0000 </r>
       <r>     7.8079     0.0000   384.0000 </r>
       <r>     7.8944     0.0060   384.0000 </r>
       <r>     7.9809     1.1925   384.0315 </r>
       <r>     8.0674     5.5225   384.2987 </r>
       <r>     8.1539    15.5441   385.0935 </r>
       <r>     8.2405    33.7123   387.5959 </r>
       <r>     8.3270    38.8702   389.8211 </r>
       <r>     8.4135    26.3740   393.1460 </r>
       <r>     8.5000    21.3097   395.0361 </r>
       <r>     8.5865    19.1534   396.8158 </r>
       <r>     8.6730    23.5834   398.5401 </r>
       <r>     8.7595    30.8662   401.0284 </r>
       <r>     8.8460    32.4721   403.6432 </r>
       <r>     8.9325    28.6991   406.2888 </r>
       <r>     9.0190    30.4934   408.9482 </r>
       <r>     9.1055    26.7291   411.4004 </r>
       <r>     9.1921    31.5981   413.8460 </r>
       <r>     9.2786    29.7819   416.5268 </r>
       <r>     9.3651    30.1337   418.9943 </r>
       <r>     9.4516    44.8960   422.2997 </r>
       <r>     9.5381    25.9466   425.9038 </r>
       <r>     9.6246    32.8011   427.5364 </r>
       <r>     9.7111    34.2007   431.5779 </r>
       <r>     9.7976    32.3247   434.3943 </r>
       <r>     9.8841    15.4143   436.6126 </r>
       <r>     9.9706    28.3377   438.7137 </r>
       <r>    10.0571    35.0251   441.2520 </r>
       <r>    10.1437    24.7621   443.6468 </r>
       <r>    10.2302    34.2645   446.0704 </r>
       <r>    10.3167    29.9231   449.2526 </r>
       <r>    10.4032    17.0235   451.1870 </r>
       <r>    10.4897    18.0239   452.7048 </r>
       <r>    10.5762    23.6769   454.4648 </r>
       <r>    10.6627    27.6292   456.8651 </r>
       <r>    10.7492    21.5722   458.9449 </r>
       <r>    10.8357    22.2373   460.8096 </r>
       <r>    10.9222    25.8279   462.7146 </r>
       <r>    11.0087    28.4271   465.1235 </r>
       <r>    11.0953    28.1367   467.5809 </r>
       <r>    11.1818    25.6533   469.9287 </r>
       <r>    11.2683    21.4255   471.9363 </r>
       <r>    11.3548    20.5115   473.7436 </r>
       <r>    11.4413    23.2923   475.6099 </r>
       <r>    11.5278    27.8213   477.8392 </r>
       <r>    11.6143    27.5490   480.2589 </r>
       <r>    11.7008    22.2487   482.5058 </r>
       <r>    11.7873    17.4724   484.1841 </r>
       <r>    11.8738    25.3357   485.8298 </r>
       <r>    11.9603    59.4220   488.4914 </r>
       <r>    12.0469    45.0173   492.5396 </r>
       <r>    12.1334    13.4768   494.9871 </r>
       <r>    12.2199    17.5269   496.0679 </r>
       <r>    12.3064    53.6187   499.6439 </r>
       <r>    12.3929    29.5718   502.2258 </r>
       <r>    12.4794     3.8532   504.0000 </r>
       <r>    12.5659    35.8896   505.5496 </r>
       <r>    12.6524     0.0000   506.0000 </r>
       <r>    12.7389     0.0000   506.0000 </r>
       <r>    12.8254     0.0000   506.0000 </r>
       <r>    12.9119     0.0000   506.0000 </r>
       <r>    12.9985     0.0000   506.0000 </r>
       <r>    13.0850     0.0000   506.0000 </r>
       <r>    13.1715     0.0000   506.0000 </r>
       <r>    13.2580     0.0000   506.0000 </r>
       <r>    13.3445     0.0000   506.0000 </r>
       <r>    13.4310     0.0000   506.0000 </r>
       <r>    13.5175     0.0000   506.0000 </r>
       <r>    13.6040     0.0000   506.0000 </r>
       <r>    13.6905     0.0000   506.0000 </r>
       <r>    13.7770     0.0000   506.0000 </r>
      </set>
     </set>
    </array>
   </total>
  </dos>
 </calculation>
 <structure name="finalpos" >
  <crystal>
   <varray name="basis" >
    <v>       9.24955836       0.04962905       4.19483425 </v>
    <v>       2.66167421       9.13964907       4.32781844 </v>
    <v>      -0.06932767       0.10306024      10.45612909 </v>
   </varray>
   <i name="volume">    882.22430671 </i>
   <varray name="rec_basis" >
    <v>       0.10781762      -0.03188627       0.00102915 </v>
    <v>      -0.00009817       0.10995548      -0.00108442 </v>
    <v>      -0.04321410      -0.03271858       0.09567365 </v>
   </varray>
  </crystal>
  <varray name="positions" >
   <v>       0.15764406       0.40431124       0.40431127 </v>
   <v>       0.15764406       0.40431124       0.90431127 </v>
   <v>       0.15764406       0.90431124       0.40431127 </v>
   <v>       0.15764406       0.90431124       0.90431127 </v>
   <v>       0.65764406       0.40431124       0.40431127 </v>
   <v>       0.65764406       0.40431124       0.90431127 </v>
   <v>       0.65764406       0.90431124       0.40431127 </v>
   <v>       0.65764406       0.90431124       0.90431127 </v>
   <v>       0.40139317       0.40139196       0.15789994 </v>
   <v>       0.40139317       0.40139196       0.65789994 </v>
   <v>       0.40139317       0.90139196       0.15789994 </v>
   <v>       0.40139317       0.90139196       0.65789994 </v>
   <v>       0.90139317       0.40139196       0.15789994 </v>
   <v>       0.90139317       0.40139196       0.65789994 </v>
   <v>       0.90139317       0.90139196       0.15789994 </v>
   <v>       0.90139317       0.90139196       0.65789994 </v>
   <v>       0.40139295       0.15789957       0.40139059 </v>
   <v>       0.40139295       0.15789957       0.90139059 </v>
   <v>       0.40139295       0.65789957       0.40139059 </v>
   <v>       0.40139295       0.65789957       0.90139059 </v>
   <v>       0.90139295       0.15789957       0.40139059 </v>
   <v>       0.90139295       0.15789957       0.90139059 </v>
   <v>       0.90139295       0.65789957       0.40139059 </v>
   <v>       0.90139295       0.65789957       0.90139059 </v>
   <v>       0.34213216       0.09595944       0.09596163 </v>
   <v>       0.34213216       0.09595944       0.59596163 </v>
   <v>       0.34213216       0.59595944       0.09596163 </v>
   <v>       0.34213216       0.59595944       0.59596163 </v>
   <v>       0.84213216       0.09595944       0.09596163 </v>
   <v>       0.84213216       0.09595944       0.59596163 </v>
   <v>       0.84213216       0.59595944       0.09596163 </v>
   <v>       0.84213216       0.59595944       0.59596163 </v>
   <v>       0.09912430       0.09762806       0.34344765 </v>
   <v>       0.09912430       0.09762806       0.84344765 </v>
   <v>       0.09912430       0.59762806       0.34344765 </v>
   <v>       0.09912430       0.59762806       0.84344765 </v>
   <v>       0.59912430       0.09762806       0.34344765 </v>
   <v>       0.59912430       0.09762806       0.84344765 </v>
   <v>       0.59912430       0.59762806       0.34344765 </v>
   <v>       0.59912430       0.59762806       0.84344765 </v>
   <v>       0.09912360       0.34344653       0.09762771 </v>
   <v>       0.09912360       0.34344653       0.59762771 </v>
   <v>       0.09912360       0.84344653       0.09762771 </v>
   <v>       0.09912360       0.84344653       0.59762771 </v>
   <v>       0.59912360       0.34344653       0.09762771 </v>
   <v>       0.59912360       0.34344653       0.59762771 </v>
   <v>       0.59912360       0.84344653       0.09762771 </v>
   <v>       0.59912360       0.84344653       0.59762771 </v>
   <v>       0.49419775       0.49819209       0.33728171 </v>
   <v>       0.49419775       0.49819209       0.83728171 </v>
   <v>       0.49419775       0.99819209       0.33728171 </v>
   <v>       0.49419775       0.99819209       0.83728171 </v>
   <v>       0.99419775       0.49819209       0.33728171 </v>
   <v>       0.99419775       0.49819209       0.83728171 </v>
   <v>       0.99419775       0.99819209       0.33728171 </v>
   <v>       0.99419775       0.99819209       0.83728171 </v>
   <v>       0.49419866       0.33727992       0.49819297 </v>
   <v>       0.49419866       0.33727992       0.99819297 </v>
   <v>       0.49419866       0.83727992       0.49819297 </v>
   <v>       0.49419866       0.83727992       0.99819297 </v>
   <v>       0.99419866       0.33727992       0.49819297 </v>
   <v>       0.99419866       0.33727992       0.99819297 </v>
   <v>       0.99419866       0.83727992       0.49819297 </v>
   <v>       0.99419866       0.83727992       0.99819297 </v>
   <v>       0.17048996       0.00327925       0.00327940 </v>
   <v>       0.17048996       0.00327925       0.50327940 </v>
   <v>       0.17048996       0.50327925       0.00327940 </v>
   <v>       0.17048996       0.50327925       0.50327940 </v>
   <v>       0.67048996       0.00327925       0.00327940 </v>
   <v>       0.67048996       0.00327925       0.50327940 </v>
   <v>       0.67048996       0.50327925       0.00327940 </v>
   <v>       0.67048996       0.50327925       0.50327940 </v>
   <v>       0.00406966       0.00230626       0.16466586 </v>
   <v>       0.00406966       0.00230626       0.66466586 </v>
   <v>       0.00406966       0.50230626       0.16466586 </v>
   <v>       0.00406966       0.50230626       0.66466586 </v>
   <v>       0.50406966       0.00230626       0.16466586 </v>
   <v>       0.50406966       0.00230626       0.66466586 </v>
   <v>       0.50406966       0.50230626       0.16466586 </v>
   <v>       0.50406966       0.50230626       0.66466586 </v>
   <v>       0.00406814       0.16466727       0.00230475 </v>
   <v>       0.00406814       0.16466727       0.50230475 </v>
   <v>       0.00406814       0.66466727       0.00230475 </v>
   <v>       0.00406814       0.66466727       0.50230475 </v>
   <v>       0.50406814       0.16466727       0.00230475 </v>
   <v>       0.50406814       0.16466727       0.50230475 </v>
   <v>       0.50406814       0.66466727       0.00230475 </v>
   <v>       0.50406814       0.66466727       0.50230475 </v>
   <v>       0.24646013       0.24902197       0.24902152 </v>
   <v>       0.24646013       0.24902197       0.74902152 </v>
   <v>       0.24646013       0.74902197       0.24902152 </v>
   <v>       0.24646013       0.74902197       0.74902152 </v>
   <v>       0.74646013       0.24902197       0.24902152 </v>
   <v>       0.74646013       0.24902197       0.74902152 </v>
   <v>       0.74646013       0.74902197       0.24902152 </v>
   <v>       0.74646013       0.74902197       0.74902152 </v>
   <v>       0.33933977       0.49779576       0.49779377 </v>
   <v>       0.33933977       0.49779576       0.99779377 </v>
   <v>       0.33933977       0.99779576       0.49779377 </v>
   <v>       0.33933977       0.99779576       0.99779377 </v>
   <v>       0.83933977       0.49779576       0.49779377 </v>
   <v>       0.83933977       0.49779576       0.99779377 </v>
   <v>       0.83933977       0.99779576       0.49779377 </v>
   <v>       0.83933977       0.99779576       0.99779377 </v>
   <v>       0.30383142       0.30959196       0.30959067 </v>
   <v>       0.30383142       0.30959196       0.80959067 </v>
   <v>       0.30383142       0.80959196       0.30959067 </v>
   <v>       0.30383142       0.80959196       0.80959067 </v>
   <v>       0.80383142       0.30959196       0.30959067 </v>
   <v>       0.80383142       0.30959196       0.80959067 </v>
   <v>       0.80383142       0.80959196       0.30959067 </v>
   <v>       0.80383142       0.80959196       0.80959067 </v>
   <v>       0.19253427       0.18722972       0.18723155 </v>
   <v>       0.19253427       0.18722972       0.68723155 </v>
   <v>       0.19253427       0.68722972       0.18723155 </v>
   <v>       0.19253427       0.68722972       0.68723155 </v>
   <v>       0.69253427       0.18722972       0.18723155 </v>
   <v>       0.69253427       0.18722972       0.68723155 </v>
   <v>       0.69253427       0.68722972       0.18723155 </v>
   <v>       0.69253427       0.68722972       0.68723155 </v>
  </varray>
 </structure>
</modeling>
