unknown system                          
            1
     9.331021    0.050189    4.191143
     2.703382    9.099570    4.285847
    -0.051956    0.072033   10.408063
   B    C 
    96    24
unknown system                          
            1
     9.331021    0.050189    4.191143
     2.703382    9.099570    4.285847
    -0.051956    0.072033   10.408063
   B    C 
    96    24
Direct configuration=     1
   0.15792300  0.40375800  0.40375800
   0.15792300  0.40375800  0.90375800
   0.15792300  0.90375800  0.40375800
   0.15792300  0.90375800  0.90375800
   0.65792300  0.40375800  0.40375800
   0.65792300  0.40375800  0.90375800
   0.65792300  0.90375800  0.40375800
   0.65792300  0.90375800  0.90375800
   0.40163200  0.40233800  0.15722000
   0.40163200  0.40233800  0.65722000
   0.40163200  0.90233800  0.15722000
   0.40163200  0.90233800  0.65722000
   0.90163200  0.40233800  0.15722000
   0.90163200  0.40233800  0.65722000
   0.90163200  0.90233800  0.15722000
   0.90163200  0.90233800  0.65722000
   0.40163200  0.15722000  0.40233800
   0.40163200  0.15722000  0.90233800
   0.40163200  0.65722000  0.40233800
   0.40163200  0.65722000  0.90233800
   0.90163200  0.15722000  0.40233800
   0.90163200  0.15722000  0.90233800
   0.90163200  0.65722000  0.40233800
   0.90163200  0.65722000  0.90233800
   0.34136600  0.09666500  0.09666500
   0.34136600  0.09666500  0.59666500
   0.34136600  0.59666500  0.09666500
   0.34136600  0.59666500  0.59666500
   0.84136600  0.09666500  0.09666500
   0.84136600  0.09666500  0.59666500
   0.84136600  0.59666500  0.09666500
   0.84136600  0.59666500  0.59666500
   0.09870000  0.09683600  0.34371100
   0.09870000  0.09683600  0.84371100
   0.09870000  0.59683600  0.34371100
   0.09870000  0.59683600  0.84371100
   0.59870000  0.09683600  0.34371100
   0.59870000  0.09683600  0.84371100
   0.59870000  0.59683600  0.34371100
   0.59870000  0.59683600  0.84371100
   0.09870000  0.34371100  0.09683600
   0.09870000  0.34371100  0.59683600
   0.09870000  0.84371100  0.09683600
   0.09870000  0.84371100  0.59683600
   0.59870000  0.34371100  0.09683600
   0.59870000  0.34371100  0.59683600
   0.59870000  0.84371100  0.09683600
   0.59870000  0.84371100  0.59683600
   0.49444700  0.49739900  0.33679800
   0.49444700  0.49739900  0.83679800
   0.49444700  0.99739900  0.33679800
   0.49444700  0.99739900  0.83679800
   0.99444700  0.49739900  0.33679800
   0.99444700  0.49739900  0.83679800
   0.99444700  0.99739900  0.33679800
   0.99444700  0.99739900  0.83679800
   0.49444700  0.33679800  0.49739900
   0.49444700  0.33679800  0.99739900
   0.49444700  0.83679800  0.49739900
   0.49444700  0.83679800  0.99739900
   0.99444700  0.33679800  0.49739900
   0.99444700  0.33679800  0.99739900
   0.99444700  0.83679800  0.49739900
   0.99444700  0.83679800  0.99739900
   0.17079500  0.00295000  0.00295000
   0.17079500  0.00295000  0.50295000
   0.17079500  0.50295000  0.00295000
   0.17079500  0.50295000  0.50295000
   0.67079500  0.00295000  0.00295000
   0.67079500  0.00295000  0.50295000
   0.67079500  0.50295000  0.00295000
   0.67079500  0.50295000  0.50295000
   0.00347500  0.00275500  0.16436200
   0.00347500  0.00275500  0.66436200
   0.00347500  0.50275500  0.16436200
   0.00347500  0.50275500  0.66436200
   0.50347500  0.00275500  0.16436200
   0.50347500  0.00275500  0.66436200
   0.50347500  0.50275500  0.16436200
   0.50347500  0.50275500  0.66436200
   0.00347500  0.16436200  0.00275500
   0.00347500  0.16436200  0.50275500
   0.00347500  0.66436200  0.00275500
   0.00347500  0.66436200  0.50275500
   0.50347500  0.16436200  0.00275500
   0.50347500  0.16436200  0.50275500
   0.50347500  0.66436200  0.00275500
   0.50347500  0.66436200  0.50275500
   0.24799500  0.24900900  0.24900900
   0.24799500  0.24900900  0.74900900
   0.24799500  0.74900900  0.24900900
   0.24799500  0.74900900  0.74900900
   0.74799500  0.24900900  0.24900900
   0.74799500  0.24900900  0.74900900
   0.74799500  0.74900900  0.24900900
   0.74799500  0.74900900  0.74900900
   0.33833600  0.49792800  0.49792800
   0.33833600  0.49792800  0.99792800
   0.33833600  0.99792800  0.49792800
   0.33833600  0.99792800  0.99792800
   0.83833600  0.49792800  0.49792800
   0.83833600  0.49792800  0.99792800
   0.83833600  0.99792800  0.49792800
   0.83833600  0.99792800  0.99792800
   0.30608800  0.30943700  0.30943700
   0.30608800  0.30943700  0.80943700
   0.30608800  0.80943700  0.30943700
   0.30608800  0.80943700  0.80943700
   0.80608800  0.30943700  0.30943700
   0.80608800  0.30943700  0.80943700
   0.80608800  0.80943700  0.30943700
   0.80608800  0.80943700  0.80943700
   0.19098900  0.18883500  0.18883500
   0.19098900  0.18883500  0.68883500
   0.19098900  0.68883500  0.18883500
   0.19098900  0.68883500  0.68883500
   0.69098900  0.18883500  0.18883500
   0.69098900  0.18883500  0.68883500
   0.69098900  0.68883500  0.18883500
   0.69098900  0.68883500  0.68883500
unknown system                          
            1
     9.255538    0.052301    4.207217
     2.680111    9.139268    4.309517
    -0.052540    0.079901   10.450158
   B    C 
    96    24
Direct configuration=     2
   0.15764212  0.40349276  0.40374074
   0.15764212  0.40349276  0.90374074
   0.15764212  0.90349276  0.40374074
   0.15764212  0.90349276  0.90374074
   0.65764212  0.40349276  0.40374074
   0.65764212  0.40349276  0.90374074
   0.65764212  0.90349276  0.40374074
   0.65764212  0.90349276  0.90374074
   0.40168803  0.40143269  0.15790948
   0.40168803  0.40143269  0.65790948
   0.40168803  0.90143269  0.15790948
   0.40168803  0.90143269  0.65790948
   0.90168803  0.40143269  0.15790948
   0.90168803  0.40143269  0.65790948
   0.90168803  0.90143269  0.15790948
   0.90168803  0.90143269  0.65790948
   0.40158993  0.15777681  0.40154676
   0.40158993  0.15777681  0.90154676
   0.40158993  0.65777681  0.40154676
   0.40158993  0.65777681  0.90154676
   0.90158993  0.15777681  0.40154676
   0.90158993  0.15777681  0.90154676
   0.90158993  0.65777681  0.40154676
   0.90158993  0.65777681  0.90154676
   0.34137889  0.09705290  0.09682028
   0.34137889  0.09705290  0.59682028
   0.34137889  0.59705290  0.09682028
   0.34137889  0.59705290  0.59682028
   0.84137889  0.09705290  0.09682028
   0.84137889  0.09705290  0.59682028
   0.84137889  0.59705290  0.09682028
   0.84137889  0.59705290  0.59682028
   0.09850946  0.09758539  0.34341061
   0.09850946  0.09758539  0.84341061
   0.09850946  0.59758539  0.34341061
   0.09850946  0.59758539  0.84341061
   0.59850946  0.09758539  0.34341061
   0.59850946  0.09758539  0.84341061
   0.59850946  0.59758539  0.34341061
   0.59850946  0.59758539  0.84341061
   0.09863265  0.34359451  0.09746122
   0.09863265  0.34359451  0.59746122
   0.09863265  0.84359451  0.09746122
   0.09863265  0.84359451  0.59746122
   0.59863265  0.34359451  0.09746122
   0.59863265  0.34359451  0.59746122
   0.59863265  0.84359451  0.09746122
   0.59863265  0.84359451  0.59746122
   0.49449504  0.49748473  0.33709662
   0.49449504  0.49748473  0.83709662
   0.49449504  0.99748473  0.33709662
   0.49449504  0.99748473  0.83709662
   0.99449504  0.49748473  0.33709662
   0.99449504  0.49748473  0.83709662
   0.99449504  0.99748473  0.33709662
   0.99449504  0.99748473  0.83709662
   0.49458850  0.33715810  0.49738717
   0.49458850  0.33715810  0.99738717
   0.49458850  0.83715810  0.49738717
   0.49458850  0.83715810  0.99738717
   0.99458850  0.33715810  0.49738717
   0.99458850  0.33715810  0.99738717
   0.99458850  0.83715810  0.49738717
   0.99458850  0.83715810  0.99738717
   0.16942504  0.00324334  0.00344763
   0.16942504  0.00324334  0.50344763
   0.16942504  0.50324334  0.00344763
   0.16942504  0.50324334  0.50344763
   0.66942504  0.00324334  0.00344763
   0.66942504  0.00324334  0.50344763
   0.66942504  0.50324334  0.00344763
   0.66942504  0.50324334  0.50344763
   0.00361846  0.00287310  0.16422842
   0.00361846  0.00287310  0.66422842
   0.00361846  0.50287310  0.16422842
   0.00361846  0.50287310  0.66422842
   0.50361846  0.00287310  0.16422842
   0.50361846  0.00287310  0.66422842
   0.50361846  0.50287310  0.16422842
   0.50361846  0.50287310  0.66422842
   0.00343213  0.16422360  0.00300689
   0.00343213  0.16422360  0.50300689
   0.00343213  0.66422360  0.00300689
   0.00343213  0.66422360  0.50300689
   0.50343213  0.16422360  0.00300689
   0.50343213  0.16422360  0.50300689
   0.50343213  0.66422360  0.00300689
   0.50343213  0.66422360  0.50300689
   0.24827209  0.24973521  0.24968089
   0.24827209  0.24973521  0.74968089
   0.24827209  0.74973521  0.24968089
   0.24827209  0.74973521  0.74968089
   0.74827209  0.24973521  0.24968089
   0.74827209  0.24973521  0.74968089
   0.74827209  0.74973521  0.24968089
   0.74827209  0.74973521  0.74968089
   0.33999842  0.49771471  0.49756262
   0.33999842  0.49771471  0.99756262
   0.33999842  0.99771471  0.49756262
   0.33999842  0.99771471  0.99756262
   0.83999842  0.49771471  0.49756262
   0.83999842  0.49771471  0.99756262
   0.83999842  0.99771471  0.49756262
   0.83999842  0.99771471  0.99756262
   0.30551793  0.30939549  0.30867781
   0.30551793  0.30939549  0.80867781
   0.30551793  0.80939549  0.30867781
   0.30551793  0.80939549  0.80867781
   0.80551793  0.30939549  0.30867781
   0.80551793  0.30939549  0.80867781
   0.80551793  0.80939549  0.30867781
   0.80551793  0.80939549  0.80867781
   0.19121130  0.18723766  0.18802387
   0.19121130  0.18723766  0.68802387
   0.19121130  0.68723766  0.18802387
   0.19121130  0.68723766  0.68802387
   0.69121130  0.18723766  0.18802387
   0.69121130  0.18723766  0.68802387
   0.69121130  0.68723766  0.18802387
   0.69121130  0.68723766  0.68802387
unknown system                          
            1
     9.295817    0.051173    4.198614
     2.692529    9.118027    4.296857
    -0.052228    0.075698   10.427631
   B    C 
    96    24
Direct configuration=     3
   0.15779391  0.40363377  0.40374893
   0.15779391  0.40363377  0.90374893
   0.15779391  0.90363377  0.40374893
   0.15779391  0.90363377  0.90374893
   0.65779391  0.40363377  0.40374893
   0.65779391  0.40363377  0.90374893
   0.65779391  0.90363377  0.40374893
   0.65779391  0.90363377  0.90374893
   0.40165957  0.40191444  0.15754180
   0.40165957  0.40191444  0.65754180
   0.40165957  0.90191444  0.15754180
   0.40165957  0.90191444  0.65754180
   0.90165957  0.40191444  0.15754180
   0.90165957  0.40191444  0.65754180
   0.90165957  0.90191444  0.15754180
   0.90165957  0.90191444  0.65754180
   0.40161159  0.15748035  0.40196825
   0.40161159  0.15748035  0.90196825
   0.40161159  0.65748035  0.40196825
   0.40161159  0.65748035  0.90196825
   0.90161159  0.15748035  0.40196825
   0.90161159  0.15748035  0.90196825
   0.90161159  0.65748035  0.40196825
   0.90161159  0.65748035  0.90196825
   0.34137114  0.09684669  0.09673810
   0.34137114  0.09684669  0.59673810
   0.34137114  0.59684669  0.09673810
   0.34137114  0.59684669  0.59673810
   0.84137114  0.09684669  0.09673810
   0.84137114  0.09684669  0.59673810
   0.84137114  0.59684669  0.09673810
   0.84137114  0.59684669  0.59673810
   0.09861060  0.09718671  0.34357076
   0.09861060  0.09718671  0.84357076
   0.09861060  0.59718671  0.34357076
   0.09861060  0.59718671  0.84357076
   0.59861060  0.09718671  0.34357076
   0.59861060  0.09718671  0.84357076
   0.59861060  0.59718671  0.34357076
   0.59861060  0.59718671  0.84357076
   0.09866906  0.34365673  0.09712825
   0.09866906  0.34365673  0.59712825
   0.09866906  0.84365673  0.09712825
   0.09866906  0.84365673  0.59712825
   0.59866906  0.34365673  0.09712825
   0.59866906  0.34365673  0.59712825
   0.59866906  0.84365673  0.09712825
   0.59866906  0.84365673  0.59712825
   0.49446895  0.49743928  0.33693794
   0.49446895  0.49743928  0.83693794
   0.49446895  0.99743928  0.33693794
   0.49446895  0.99743928  0.83693794
   0.99446895  0.49743928  0.33693794
   0.99446895  0.49743928  0.83693794
   0.99446895  0.99743928  0.33693794
   0.99446895  0.99743928  0.83693794
   0.49451158  0.33696661  0.49739420
   0.49451158  0.33696661  0.99739420
   0.49451158  0.83696661  0.49739420
   0.49451158  0.83696661  0.99739420
   0.99451158  0.33696661  0.49739420
   0.99451158  0.33696661  0.99739420
   0.99451158  0.83696661  0.49739420
   0.99451158  0.83696661  0.99739420
   0.17016209  0.00308739  0.00317969
   0.17016209  0.00308739  0.50317969
   0.17016209  0.50308739  0.00317969
   0.17016209  0.50308739  0.50317969
   0.67016209  0.00308739  0.00317969
   0.67016209  0.00308739  0.50317969
   0.67016209  0.50308739  0.00317969
   0.67016209  0.50308739  0.50317969
   0.00354099  0.00281025  0.16429999
   0.00354099  0.00281025  0.66429999
   0.00354099  0.50281025  0.16429999
   0.00354099  0.50281025  0.66429999
   0.50354099  0.00281025  0.16429999
   0.50354099  0.00281025  0.66429999
   0.50354099  0.50281025  0.16429999
   0.50354099  0.50281025  0.66429999
   0.00345546  0.16429731  0.00287260
   0.00345546  0.16429731  0.50287260
   0.00345546  0.66429731  0.00287260
   0.00345546  0.66429731  0.50287260
   0.50345546  0.16429731  0.00287260
   0.50345546  0.16429731  0.50287260
   0.50345546  0.66429731  0.00287260
   0.50345546  0.66429731  0.50287260
   0.24812132  0.24934935  0.24932486
   0.24812132  0.24934935  0.74932486
   0.24812132  0.74934935  0.24932486
   0.24812132  0.74934935  0.74932486
   0.74812132  0.24934935  0.24932486
   0.74812132  0.24934935  0.74932486
   0.74812132  0.74934935  0.24932486
   0.74812132  0.74934935  0.74932486
   0.33910370  0.49782818  0.49776102
   0.33910370  0.49782818  0.99776102
   0.33910370  0.99782818  0.49776102
   0.33910370  0.99782818  0.99776102
   0.83910370  0.49782818  0.49776102
   0.83910370  0.49782818  0.99776102
   0.83910370  0.99782818  0.49776102
   0.83910370  0.99782818  0.99776102
   0.30582511  0.30941716  0.30908028
   0.30582511  0.30941716  0.80908028
   0.30582511  0.80941716  0.30908028
   0.30582511  0.80941716  0.80908028
   0.80582511  0.30941716  0.30908028
   0.80582511  0.30941716  0.80908028
   0.80582511  0.80941716  0.30908028
   0.80582511  0.80941716  0.80908028
   0.19109493  0.18808679  0.18845433
   0.19109493  0.18808679  0.68845433
   0.19109493  0.68808679  0.18845433
   0.19109493  0.68808679  0.68845433
   0.69109493  0.18808679  0.18845433
   0.69109493  0.18808679  0.68845433
   0.69109493  0.68808679  0.18845433
   0.69109493  0.68808679  0.68845433
unknown system                          
            1
     9.233075    0.052223    4.206772
     2.669630    9.150274    4.317555
    -0.058343    0.085325   10.462113
   B    C 
    96    24
Direct configuration=     4
   0.15744922  0.40370037  0.40383789
   0.15744922  0.40370037  0.90383789
   0.15744922  0.90370037  0.40383789
   0.15744922  0.90370037  0.90383789
   0.65744922  0.40370037  0.40383789
   0.65744922  0.40370037  0.90383789
   0.65744922  0.90370037  0.40383789
   0.65744922  0.90370037  0.90383789
   0.40174061  0.40149435  0.15774845
   0.40174061  0.40149435  0.65774845
   0.40174061  0.90149435  0.15774845
   0.40174061  0.90149435  0.65774845
   0.90174061  0.40149435  0.15774845
   0.90174061  0.40149435  0.65774845
   0.90174061  0.90149435  0.15774845
   0.90174061  0.90149435  0.65774845
   0.40153644  0.15780149  0.40142386
   0.40153644  0.15780149  0.90142386
   0.40153644  0.65780149  0.40142386
   0.40153644  0.65780149  0.90142386
   0.90153644  0.15780149  0.40142386
   0.90153644  0.15780149  0.90142386
   0.90153644  0.65780149  0.40142386
   0.90153644  0.65780149  0.90142386
   0.34165140  0.09673739  0.09661400
   0.34165140  0.09673739  0.59661400
   0.34165140  0.59673739  0.09661400
   0.34165140  0.59673739  0.59661400
   0.84165140  0.09673739  0.09661400
   0.84165140  0.09673739  0.59661400
   0.84165140  0.59673739  0.09661400
   0.84165140  0.59673739  0.59661400
   0.09863309  0.09757874  0.34336245
   0.09863309  0.09757874  0.84336245
   0.09863309  0.59757874  0.34336245
   0.09863309  0.59757874  0.84336245
   0.59863309  0.09757874  0.34336245
   0.59863309  0.09757874  0.84336245
   0.59863309  0.59757874  0.34336245
   0.59863309  0.59757874  0.84336245
   0.09887088  0.34330057  0.09767050
   0.09887088  0.34330057  0.59767050
   0.09887088  0.84330057  0.09767050
   0.09887088  0.84330057  0.59767050
   0.59887088  0.34330057  0.09767050
   0.59887088  0.34330057  0.59767050
   0.59887088  0.84330057  0.09767050
   0.59887088  0.84330057  0.59767050
   0.49445866  0.49764981  0.33721324
   0.49445866  0.49764981  0.83721324
   0.49445866  0.99764981  0.33721324
   0.49445866  0.99764981  0.83721324
   0.99445866  0.49764981  0.33721324
   0.99445866  0.49764981  0.83721324
   0.99445866  0.99764981  0.33721324
   0.99445866  0.99764981  0.83721324
   0.49455995  0.33724666  0.49756462
   0.49455995  0.33724666  0.99756462
   0.49455995  0.83724666  0.49756462
   0.49455995  0.83724666  0.99756462
   0.99455995  0.33724666  0.49756462
   0.99455995  0.33724666  0.99756462
   0.99455995  0.83724666  0.49756462
   0.99455995  0.83724666  0.99756462
   0.16949303  0.00329062  0.00348388
   0.16949303  0.00329062  0.50348388
   0.16949303  0.50329062  0.00348388
   0.16949303  0.50329062  0.50348388
   0.66949303  0.00329062  0.00348388
   0.66949303  0.00329062  0.50348388
   0.66949303  0.50329062  0.00348388
   0.66949303  0.50329062  0.50348388
   0.00366010  0.00279145  0.16440967
   0.00366010  0.00279145  0.66440967
   0.00366010  0.50279145  0.16440967
   0.00366010  0.50279145  0.66440967
   0.50366010  0.00279145  0.16440967
   0.50366010  0.00279145  0.66440967
   0.50366010  0.50279145  0.16440967
   0.50366010  0.50279145  0.66440967
   0.00347682  0.16442199  0.00291034
   0.00347682  0.16442199  0.50291034
   0.00347682  0.66442199  0.00291034
   0.00347682  0.66442199  0.50291034
   0.50347682  0.16442199  0.00291034
   0.50347682  0.16442199  0.50291034
   0.50347682  0.66442199  0.00291034
   0.50347682  0.66442199  0.50291034
   0.24708597  0.24865408  0.24858362
   0.24708597  0.24865408  0.74858362
   0.24708597  0.74865408  0.24858362
   0.24708597  0.74865408  0.74858362
   0.74708597  0.24865408  0.24858362
   0.74708597  0.24865408  0.74858362
   0.74708597  0.74865408  0.24858362
   0.74708597  0.74865408  0.74858362
   0.34002014  0.49768800  0.49751959
   0.34002014  0.49768800  0.99751959
   0.34002014  0.99768800  0.49751959
   0.34002014  0.99768800  0.99751959
   0.84002014  0.49768800  0.49751959
   0.84002014  0.49768800  0.99751959
   0.84002014  0.99768800  0.49751959
   0.84002014  0.99768800  0.99751959
   0.30550348  0.30979490  0.30924375
   0.30550348  0.30979490  0.80924375
   0.30550348  0.80979490  0.30924375
   0.30550348  0.80979490  0.80924375
   0.80550348  0.30979490  0.30924375
   0.80550348  0.30979490  0.80924375
   0.80550348  0.80979490  0.30924375
   0.80550348  0.80979490  0.80924375
   0.19186023  0.18785059  0.18841513
   0.19186023  0.18785059  0.68841513
   0.19186023  0.68785059  0.18841513
   0.19186023  0.68785059  0.68841513
   0.69186023  0.18785059  0.18841513
   0.69186023  0.18785059  0.68841513
   0.69186023  0.68785059  0.18841513
   0.69186023  0.68785059  0.68841513
unknown system                          
            1
     9.269255    0.051617    4.202053
     2.682837    9.131642    4.305600
    -0.054814    0.079770   10.442188
   B    C 
    96    24
Direct configuration=     5
   0.15764929  0.40366210  0.40378611
   0.15764929  0.40366210  0.90378611
   0.15764929  0.90366210  0.40378611
   0.15764929  0.90366210  0.90378611
   0.65764929  0.40366210  0.40378611
   0.65764929  0.40366210  0.90378611
   0.65764929  0.90366210  0.40378611
   0.65764929  0.90366210  0.90378611
   0.40169426  0.40173603  0.15762929
   0.40169426  0.40173603  0.65762929
   0.40169426  0.90173603  0.15762929
   0.40169426  0.90173603  0.65762929
   0.90169426  0.40173603  0.15762929
   0.90169426  0.40173603  0.65762929
   0.90169426  0.90173603  0.15762929
   0.90169426  0.90173603  0.65762929
   0.40157974  0.15761651  0.40173718
   0.40157974  0.15761651  0.90173718
   0.40157974  0.65761651  0.40173718
   0.40157974  0.65761651  0.90173718
   0.90157974  0.15761651  0.40173718
   0.90157974  0.15761651  0.90173718
   0.90157974  0.65761651  0.40173718
   0.90157974  0.65761651  0.90173718
   0.34148887  0.09680018  0.09668582
   0.34148887  0.09680018  0.59668582
   0.34148887  0.59680018  0.09668582
   0.34148887  0.59680018  0.59668582
   0.84148887  0.09680018  0.09668582
   0.84148887  0.09680018  0.59668582
   0.84148887  0.59680018  0.09668582
   0.84148887  0.59680018  0.59668582
   0.09861935  0.09735320  0.34348274
   0.09861935  0.09735320  0.84348274
   0.09861935  0.59735320  0.34348274
   0.09861935  0.59735320  0.84348274
   0.59861935  0.09735320  0.34348274
   0.59861935  0.09735320  0.84348274
   0.59861935  0.59735320  0.34348274
   0.59861935  0.59735320  0.84348274
   0.09875405  0.34350569  0.09735863
   0.09875405  0.34350569  0.59735863
   0.09875405  0.84350569  0.09735863
   0.09875405  0.84350569  0.59735863
   0.59875405  0.34350569  0.09735863
   0.59875405  0.34350569  0.59735863
   0.59875405  0.84350569  0.09735863
   0.59875405  0.84350569  0.59735863
   0.49446407  0.49752892  0.33705511
   0.49446407  0.49752892  0.83705511
   0.49446407  0.99752892  0.33705511
   0.49446407  0.99752892  0.83705511
   0.99446407  0.49752892  0.33705511
   0.99446407  0.49752892  0.83705511
   0.99446407  0.99752892  0.33705511
   0.99446407  0.99752892  0.83705511
   0.49453119  0.33708574  0.49746701
   0.49453119  0.33708574  0.99746701
   0.49453119  0.83708574  0.49746701
   0.49453119  0.83708574  0.99746701
   0.99453119  0.33708574  0.49746701
   0.99453119  0.33708574  0.99746701
   0.99453119  0.83708574  0.49746701
   0.99453119  0.83708574  0.99746701
   0.16988116  0.00317390  0.00330781
   0.16988116  0.00317390  0.50330781
   0.16988116  0.50317390  0.00330781
   0.16988116  0.50317390  0.50330781
   0.66988116  0.00317390  0.00330781
   0.66988116  0.00317390  0.50330781
   0.66988116  0.50317390  0.00330781
   0.66988116  0.50317390  0.50330781
   0.00359088  0.00280234  0.16434680
   0.00359088  0.00280234  0.66434680
   0.00359088  0.50280234  0.16434680
   0.00359088  0.50280234  0.66434680
   0.50359088  0.00280234  0.16434680
   0.50359088  0.00280234  0.66434680
   0.50359088  0.50280234  0.16434680
   0.50359088  0.50280234  0.66434680
   0.00346414  0.16435032  0.00288882
   0.00346414  0.16435032  0.50288882
   0.00346414  0.66435032  0.00288882
   0.00346414  0.66435032  0.50288882
   0.50346414  0.16435032  0.00288882
   0.50346414  0.16435032  0.50288882
   0.50346414  0.66435032  0.00288882
   0.50346414  0.66435032  0.50288882
   0.24768927  0.24905334  0.24900711
   0.24768927  0.24905334  0.74900711
   0.24768927  0.74905334  0.24900711
   0.24768927  0.74905334  0.74900711
   0.74768927  0.24905334  0.24900711
   0.74768927  0.24905334  0.74900711
   0.74768927  0.74905334  0.24900711
   0.74768927  0.74905334  0.74900711
   0.33948813  0.49776852  0.49766013
   0.33948813  0.49776852  0.99766013
   0.33948813  0.99776852  0.49766013
   0.33948813  0.99776852  0.99766013
   0.83948813  0.49776852  0.49766013
   0.83948813  0.49776852  0.99766013
   0.83948813  0.99776852  0.49766013
   0.83948813  0.99776852  0.99766013
   0.30568949  0.30957777  0.30914950
   0.30568949  0.30957777  0.80914950
   0.30568949  0.80957777  0.30914950
   0.30568949  0.80957777  0.80914950
   0.80568949  0.30957777  0.30914950
   0.80568949  0.30957777  0.80914950
   0.80568949  0.80957777  0.30914950
   0.80568949  0.80957777  0.80914950
   0.19141612  0.18798644  0.18843894
   0.19141612  0.18798644  0.68843894
   0.19141612  0.68798644  0.18843894
   0.19141612  0.68798644  0.68843894
   0.69141612  0.18798644  0.18843894
   0.69141612  0.18798644  0.68843894
   0.69141612  0.68798644  0.18843894
   0.69141612  0.68798644  0.68843894
unknown system                          
            1
     9.253912    0.051748    4.199886
     2.673832    9.138800    4.313644
    -0.061150    0.086841   10.450893
   B    C 
    96    24
Direct configuration=     6
   0.15764397  0.40392351  0.40390768
   0.15764397  0.40392351  0.90390768
   0.15764397  0.90392351  0.40390768
   0.15764397  0.90392351  0.90390768
   0.65764397  0.40392351  0.40390768
   0.65764397  0.40392351  0.90390768
   0.65764397  0.90392351  0.40390768
   0.65764397  0.90392351  0.90390768
   0.40164611  0.40185645  0.15754177
   0.40164611  0.40185645  0.65754177
   0.40164611  0.90185645  0.15754177
   0.40164611  0.90185645  0.65754177
   0.90164611  0.40185645  0.15754177
   0.90164611  0.40185645  0.65754177
   0.90164611  0.90185645  0.15754177
   0.90164611  0.90185645  0.65754177
   0.40145854  0.15771945  0.40167704
   0.40145854  0.15771945  0.90167704
   0.40145854  0.65771945  0.40167704
   0.40145854  0.65771945  0.90167704
   0.90145854  0.15771945  0.40167704
   0.90145854  0.15771945  0.90167704
   0.90145854  0.65771945  0.40167704
   0.90145854  0.65771945  0.90167704
   0.34183647  0.09637429  0.09639857
   0.34183647  0.09637429  0.59639857
   0.34183647  0.59637429  0.09639857
   0.34183647  0.59637429  0.59639857
   0.84183647  0.09637429  0.09639857
   0.84183647  0.09637429  0.59639857
   0.84183647  0.59637429  0.09639857
   0.84183647  0.59637429  0.59639857
   0.09880965  0.09724638  0.34363219
   0.09880965  0.09724638  0.84363219
   0.09880965  0.59724638  0.34363219
   0.09880965  0.59724638  0.84363219
   0.59880965  0.09724638  0.34363219
   0.59880965  0.09724638  0.84363219
   0.59880965  0.59724638  0.34363219
   0.59880965  0.59724638  0.84363219
   0.09901320  0.34341308  0.09744607
   0.09901320  0.34341308  0.59744607
   0.09901320  0.84341308  0.09744607
   0.09901320  0.84341308  0.59744607
   0.59901320  0.34341308  0.09744607
   0.59901320  0.34341308  0.59744607
   0.59901320  0.84341308  0.09744607
   0.59901320  0.84341308  0.59744607
   0.49439511  0.49775434  0.33713491
   0.49439511  0.49775434  0.83713491
   0.49439511  0.99775434  0.33713491
   0.49439511  0.99775434  0.83713491
   0.99439511  0.49775434  0.33713491
   0.99439511  0.49775434  0.83713491
   0.99439511  0.99775434  0.33713491
   0.99439511  0.99775434  0.83713491
   0.49445633  0.33712494  0.49772916
   0.49445633  0.33712494  0.99772916
   0.49445633  0.83712494  0.49772916
   0.49445633  0.83712494  0.99772916
   0.99445633  0.33712494  0.49772916
   0.99445633  0.33712494  0.99772916
   0.99445633  0.83712494  0.49772916
   0.99445633  0.83712494  0.99772916
   0.17016763  0.00319634  0.00328164
   0.17016763  0.00319634  0.50328164
   0.17016763  0.50319634  0.00328164
   0.17016763  0.50319634  0.50328164
   0.67016763  0.00319634  0.00328164
   0.67016763  0.00319634  0.50328164
   0.67016763  0.50319634  0.00328164
   0.67016763  0.50319634  0.50328164
   0.00368372  0.00268255  0.16454633
   0.00368372  0.00268255  0.66454633
   0.00368372  0.50268255  0.16454633
   0.00368372  0.50268255  0.66454633
   0.50368372  0.00268255  0.16454633
   0.50368372  0.00268255  0.66454633
   0.50368372  0.50268255  0.16454633
   0.50368372  0.50268255  0.66454633
   0.00360143  0.16455860  0.00272104
   0.00360143  0.16455860  0.50272104
   0.00360143  0.66455860  0.00272104
   0.00360143  0.66455860  0.50272104
   0.50360143  0.16455860  0.00272104
   0.50360143  0.16455860  0.50272104
   0.50360143  0.66455860  0.00272104
   0.50360143  0.66455860  0.50272104
   0.24737930  0.24902010  0.24895475
   0.24737930  0.24902010  0.74895475
   0.24737930  0.74902010  0.24895475
   0.24737930  0.74902010  0.74895475
   0.74737930  0.24902010  0.24895475
   0.74737930  0.24902010  0.74895475
   0.74737930  0.74902010  0.24895475
   0.74737930  0.74902010  0.74895475
   0.33921717  0.49780347  0.49770785
   0.33921717  0.49780347  0.99770785
   0.33921717  0.99780347  0.49770785
   0.33921717  0.99780347  0.99770785
   0.83921717  0.49780347  0.49770785
   0.83921717  0.49780347  0.99770785
   0.83921717  0.99780347  0.49770785
   0.83921717  0.99780347  0.99770785
   0.30503332  0.30934592  0.30920656
   0.30503332  0.30934592  0.80920656
   0.30503332  0.80934592  0.30920656
   0.30503332  0.80934592  0.80920656
   0.80503332  0.30934592  0.30920656
   0.80503332  0.30934592  0.80920656
   0.80503332  0.80934592  0.30920656
   0.80503332  0.80934592  0.80920656
   0.19165805  0.18798157  0.18811544
   0.19165805  0.18798157  0.68811544
   0.19165805  0.68798157  0.18811544
   0.19165805  0.68798157  0.68811544
   0.69165805  0.18798157  0.18811544
   0.69165805  0.18798157  0.68811544
   0.69165805  0.68798157  0.18811544
   0.69165805  0.68798157  0.68811544
unknown system                          
            1
     9.250304    0.051779    4.199377
     2.671714    9.140486    4.315537
    -0.062640    0.088505   10.452943
   B    C 
    96    24
Direct configuration=     7
   0.15764282  0.40398494  0.40393621
   0.15764282  0.40398494  0.90393621
   0.15764282  0.90398494  0.40393621
   0.15764282  0.90398494  0.90393621
   0.65764282  0.40398494  0.40393621
   0.65764282  0.40398494  0.90393621
   0.65764282  0.90398494  0.40393621
   0.65764282  0.90398494  0.90393621
   0.40163478  0.40188478  0.15752118
   0.40163478  0.40188478  0.65752118
   0.40163478  0.90188478  0.15752118
   0.40163478  0.90188478  0.65752118
   0.90163478  0.40188478  0.15752118
   0.90163478  0.40188478  0.65752118
   0.90163478  0.90188478  0.15752118
   0.90163478  0.90188478  0.65752118
   0.40142999  0.15774367  0.40166289
   0.40142999  0.15774367  0.90166289
   0.40142999  0.65774367  0.40166289
   0.40142999  0.65774367  0.90166289
   0.90142999  0.15774367  0.40166289
   0.90142999  0.15774367  0.90166289
   0.90142999  0.65774367  0.40166289